 vasp.5.4.4.18Apr17-6-g9f103f2a35 (build Nov 03 2018 10:20:46) complex          
  
 executed on             LinuxIFC date 2018.11.14  10:04:54
 running on   40 total cores
 distrk:  each k-point on    5 cores,    8 groups
 distr:  one band on NCORES_PER_BAND=   1 cores,    5 groups


--------------------------------------------------------------------------------------------------------


 INCAR:
 POTCAR:    PAW Og, JanMewes Oct 18               

 ----------------------------------------------------------------------------- 
|                                                                             |
|           W    W    AA    RRRRR   N    N  II  N    N   GGGG   !!!           |
|           W    W   A  A   R    R  NN   N  II  NN   N  G    G  !!!           |
|           W    W  A    A  R    R  N N  N  II  N N  N  G       !!!           |
|           W WW W  AAAAAA  RRRRR   N  N N  II  N  N N  G  GGG   !            |
|           WW  WW  A    A  R   R   N   NN  II  N   NN  G    G                |
|           W    W  A    A  R    R  N    N  II  N    N   GGGG   !!!           |
|                                                                             |
|      For optimal performance we recommend to set                            |
|        NCORE= 4 - approx SQRT( number of cores)                             |
|      NCORE specifies how many cores store one orbital (NPAR=cpu/NCORE).     |
|      This setting can  greatly improve the performance of VASP for DFT.     |
|      The default,   NCORE=1            might be grossly inefficient         |
|      on modern multi-core architectures or massively parallel machines.     |
|      Do your own testing !!!!                                               |
|      Unfortunately you need to use the default for GW and RPA calculations. |
|      (for HF NCORE is supported but not extensively tested yet)             |
|                                                                             |
 ----------------------------------------------------------------------------- 


 ----------------------------------------------------------------------------- 
|                                                                             |
|           W    W    AA    RRRRR   N    N  II  N    N   GGGG   !!!           |
|           W    W   A  A   R    R  NN   N  II  NN   N  G    G  !!!           |
|           W    W  A    A  R    R  N N  N  II  N N  N  G       !!!           |
|           W WW W  AAAAAA  RRRRR   N  N N  II  N  N N  G  GGG   !            |
|           WW  WW  A    A  R   R   N   NN  II  N   NN  G    G                |
|           W    W  A    A  R    R  N    N  II  N    N   GGGG   !!!           |
|                                                                             |
|      You have enabled k-point parallelism (KPAR>1).                         |
|      This developmental code was originally  written by Paul Kent at ORNL,  |
|      and carefully double checked in Vienna.                                |
|      GW as well as linear response parallelism added by Martijn Marsman     |
|      and Georg Kresse.                                                      |
|      Carefully verify results versus KPAR=1.                                |
|      Report problems to Paul Kent and Vienna.                               |
|                                                                             |
 ----------------------------------------------------------------------------- 

 POTCAR:    PAW Og, JanMewes Oct 18               
  local pseudopotential read in
  partial core-charges read in
  partial kinetic energy density read in
  kinetic energy density of atom read in
  atomic valenz-charges read in
  non local Contribution for L=           2  read in
    real space projection operators read in
  non local Contribution for L=           2  read in
    real space projection operators read in
  non local Contribution for L=           0  read in
    real space projection operators read in
  non local Contribution for L=           0  read in
    real space projection operators read in
  non local Contribution for L=           1  read in
    real space projection operators read in
  non local Contribution for L=           1  read in
    real space projection operators read in
    PAW grid and wavefunctions read in
 
   number of l-projection  operators is LMAX  =           6
   number of lm-projection operators is LMMAX =          18
 
  PAW Og, JanMewes Oct 18               :
 energy of atom  1       EATOM=-2640.5573
 kinetic energy error for atom=    0.6524 (will be added to EATOM!!)
 
 
 POSCAR: Og_FCC                                  
  positions in direct lattice
  velocities in cartesian coordinates
 exchange correlation table for  LEXCH =        8
   RHO(1)=    0.500       N(1)  =     2000
   RHO(2)=  100.500       N(2)  =     4000
 


--------------------------------------------------------------------------------------------------------


 ion  position               nearest neighbor table
   1  0.000  0.000  0.000-
 

IMPORTANT INFORMATION: All symmetrisations will be switched off!
NOSYMM: (Re-)initialisation of all symmetry stuff for point group C_1.

 
 
 KPOINTS: k-points                                

Automatic generation of k-mesh.
Space group operators:
 irot       det(A)        alpha          n_x          n_y          n_z        tau_x        tau_y        tau_z
    1     1.000000     0.000000     1.000000     0.000000     0.000000     0.000000     0.000000     0.000000
 
 Subroutine IBZKPT returns following result:
 ===========================================
 
 Found     64 irreducible k-points:
 
 Following reciprocal coordinates:
            Coordinates               Weight
  0.000000  0.000000  0.000000      1.000000
  0.250000  0.000000  0.000000      1.000000
  0.500000  0.000000  0.000000      1.000000
 -0.250000 -0.000000 -0.000000      1.000000
  0.000000  0.250000 -0.000000      1.000000
  0.250000  0.250000  0.000000      1.000000
  0.500000  0.250000  0.000000      1.000000
 -0.250000  0.250000 -0.000000      1.000000
  0.000000  0.500000 -0.000000      1.000000
  0.250000  0.500000  0.000000      1.000000
  0.500000  0.500000  0.000000      1.000000
 -0.250000  0.500000 -0.000000      1.000000
 -0.000000 -0.250000  0.000000      1.000000
  0.250000 -0.250000  0.000000      1.000000
  0.500000 -0.250000  0.000000      1.000000
 -0.250000 -0.250000 -0.000000      1.000000
  0.000000  0.000000  0.250000      1.000000
  0.250000 -0.000000  0.250000      1.000000
  0.500000 -0.000000  0.250000      1.000000
 -0.250000 -0.000000  0.250000      1.000000
 -0.000000  0.250000  0.250000      1.000000
  0.250000  0.250000  0.250000      1.000000
  0.500000  0.250000  0.250000      1.000000
 -0.250000  0.250000  0.250000      1.000000
 -0.000000  0.500000  0.250000      1.000000
  0.250000  0.500000  0.250000      1.000000
  0.500000  0.500000  0.250000      1.000000
 -0.250000  0.500000  0.250000      1.000000
  0.000000 -0.250000  0.250000      1.000000
  0.250000 -0.250000  0.250000      1.000000
  0.500000 -0.250000  0.250000      1.000000
 -0.250000 -0.250000  0.250000      1.000000
  0.000000  0.000000  0.500000      1.000000
  0.250000  0.000000  0.500000      1.000000
  0.500000 -0.000000  0.500000      1.000000
 -0.250000  0.000000  0.500000      1.000000
 -0.000000  0.250000  0.500000      1.000000
  0.250000  0.250000  0.500000      1.000000
  0.500000  0.250000  0.500000      1.000000
 -0.250000  0.250000  0.500000      1.000000
 -0.000000  0.500000  0.500000      1.000000
  0.250000  0.500000  0.500000      1.000000
  0.500000  0.500000  0.500000      1.000000
 -0.250000  0.500000  0.500000      1.000000
  0.000000 -0.250000  0.500000      1.000000
  0.250000 -0.250000  0.500000      1.000000
  0.500000 -0.250000  0.500000      1.000000
 -0.250000 -0.250000  0.500000      1.000000
  0.000000  0.000000 -0.250000      1.000000
  0.250000  0.000000 -0.250000      1.000000
  0.500000  0.000000 -0.250000      1.000000
 -0.250000  0.000000 -0.250000      1.000000
  0.000000  0.250000 -0.250000      1.000000
  0.250000  0.250000 -0.250000      1.000000
  0.500000  0.250000 -0.250000      1.000000
 -0.250000  0.250000 -0.250000      1.000000
  0.000000  0.500000 -0.250000      1.000000
  0.250000  0.500000 -0.250000      1.000000
  0.500000  0.500000 -0.250000      1.000000
 -0.250000  0.500000 -0.250000      1.000000
  0.000000 -0.250000 -0.250000      1.000000
  0.250000 -0.250000 -0.250000      1.000000
  0.500000 -0.250000 -0.250000      1.000000
 -0.250000 -0.250000 -0.250000      1.000000
 
 Following cartesian coordinates:
            Coordinates               Weight
  0.000000  0.000000  0.000000      1.000000
  0.057573 -0.033240 -0.023504      1.000000
  0.115145 -0.066479 -0.047008      1.000000
 -0.057573  0.033240  0.023504      1.000000
  0.000000  0.066479 -0.023504      1.000000
  0.057573  0.033240 -0.047008      1.000000
  0.115145  0.000000 -0.070512      1.000000
 -0.057573  0.099719  0.000000      1.000000
  0.000000  0.132958 -0.047008      1.000000
  0.057573  0.099719 -0.070512      1.000000
  0.115145  0.066479 -0.094016      1.000000
 -0.057573  0.166198 -0.023504      1.000000
 -0.000000 -0.066479  0.023504      1.000000
  0.057573 -0.099719 -0.000000      1.000000
  0.115145 -0.132958 -0.023504      1.000000
 -0.057573 -0.033240  0.047008      1.000000
 -0.000000  0.000000  0.070512      1.000000
  0.057573 -0.033240  0.047008      1.000000
  0.115145 -0.066479  0.023504      1.000000
 -0.057573  0.033240  0.094016      1.000000
 -0.000000  0.066479  0.047008      1.000000
  0.057573  0.033240  0.023504      1.000000
  0.115145  0.000000 -0.000000      1.000000
 -0.057573  0.099719  0.070512      1.000000
 -0.000000  0.132958  0.023504      1.000000
  0.057573  0.099719  0.000000      1.000000
  0.115145  0.066479 -0.023504      1.000000
 -0.057573  0.166198  0.047008      1.000000
 -0.000000 -0.066479  0.094016      1.000000
  0.057573 -0.099719  0.070512      1.000000
  0.115145 -0.132958  0.047008      1.000000
 -0.057573 -0.033240  0.117520      1.000000
 -0.000000  0.000000  0.141023      1.000000
  0.057573 -0.033240  0.117520      1.000000
  0.115145 -0.066479  0.094016      1.000000
 -0.057573  0.033240  0.164527      1.000000
 -0.000000  0.066479  0.117520      1.000000
  0.057573  0.033240  0.094016      1.000000
  0.115145  0.000000  0.070512      1.000000
 -0.057573  0.099719  0.141023      1.000000
 -0.000000  0.132958  0.094016      1.000000
  0.057573  0.099719  0.070512      1.000000
  0.115145  0.066479  0.047008      1.000000
 -0.057573  0.166198  0.117520      1.000000
 -0.000000 -0.066479  0.164527      1.000000
  0.057573 -0.099719  0.141023      1.000000
  0.115145 -0.132958  0.117520      1.000000
 -0.057573 -0.033240  0.188031      1.000000
  0.000000 -0.000000 -0.070512      1.000000
  0.057573 -0.033240 -0.094016      1.000000
  0.115145 -0.066479 -0.117520      1.000000
 -0.057573  0.033240 -0.047008      1.000000
  0.000000  0.066479 -0.094016      1.000000
  0.057573  0.033240 -0.117520      1.000000
  0.115145 -0.000000 -0.141023      1.000000
 -0.057573  0.099719 -0.070512      1.000000
  0.000000  0.132958 -0.117520      1.000000
  0.057573  0.099719 -0.141023      1.000000
  0.115145  0.066479 -0.164527      1.000000
 -0.057573  0.166198 -0.094016      1.000000
  0.000000 -0.066479 -0.047008      1.000000
  0.057573 -0.099719 -0.070512      1.000000
  0.115145 -0.132958 -0.094016      1.000000
 -0.057573 -0.033240 -0.023504      1.000000
 
 
 Subroutine IBZKPT_HF returns following result:
 ==============================================
 
 Found     64 k-points in 1st BZ
 the following     64 k-points will be used (e.g. in the exchange kernel)
 Following reciprocal coordinates:   # in IRBZ
  0.000000  0.000000  0.000000    0.01562500   1 t-inv F
  0.250000  0.000000  0.000000    0.01562500   2 t-inv F
  0.500000  0.000000  0.000000    0.01562500   3 t-inv F
 -0.250000 -0.000000 -0.000000    0.01562500   4 t-inv F
  0.000000  0.250000 -0.000000    0.01562500   5 t-inv F
  0.250000  0.250000  0.000000    0.01562500   6 t-inv F
  0.500000  0.250000  0.000000    0.01562500   7 t-inv F
 -0.250000  0.250000 -0.000000    0.01562500   8 t-inv F
  0.000000  0.500000 -0.000000    0.01562500   9 t-inv F
  0.250000  0.500000  0.000000    0.01562500  10 t-inv F
  0.500000  0.500000  0.000000    0.01562500  11 t-inv F
 -0.250000  0.500000 -0.000000    0.01562500  12 t-inv F
 -0.000000 -0.250000  0.000000    0.01562500  13 t-inv F
  0.250000 -0.250000  0.000000    0.01562500  14 t-inv F
  0.500000 -0.250000  0.000000    0.01562500  15 t-inv F
 -0.250000 -0.250000 -0.000000    0.01562500  16 t-inv F
  0.000000  0.000000  0.250000    0.01562500  17 t-inv F
  0.250000 -0.000000  0.250000    0.01562500  18 t-inv F
  0.500000 -0.000000  0.250000    0.01562500  19 t-inv F
 -0.250000 -0.000000  0.250000    0.01562500  20 t-inv F
 -0.000000  0.250000  0.250000    0.01562500  21 t-inv F
  0.250000  0.250000  0.250000    0.01562500  22 t-inv F
  0.500000  0.250000  0.250000    0.01562500  23 t-inv F
 -0.250000  0.250000  0.250000    0.01562500  24 t-inv F
 -0.000000  0.500000  0.250000    0.01562500  25 t-inv F
  0.250000  0.500000  0.250000    0.01562500  26 t-inv F
  0.500000  0.500000  0.250000    0.01562500  27 t-inv F
 -0.250000  0.500000  0.250000    0.01562500  28 t-inv F
  0.000000 -0.250000  0.250000    0.01562500  29 t-inv F
  0.250000 -0.250000  0.250000    0.01562500  30 t-inv F
  0.500000 -0.250000  0.250000    0.01562500  31 t-inv F
 -0.250000 -0.250000  0.250000    0.01562500  32 t-inv F
  0.000000  0.000000  0.500000    0.01562500  33 t-inv F
  0.250000  0.000000  0.500000    0.01562500  34 t-inv F
  0.500000 -0.000000  0.500000    0.01562500  35 t-inv F
 -0.250000  0.000000  0.500000    0.01562500  36 t-inv F
 -0.000000  0.250000  0.500000    0.01562500  37 t-inv F
  0.250000  0.250000  0.500000    0.01562500  38 t-inv F
  0.500000  0.250000  0.500000    0.01562500  39 t-inv F
 -0.250000  0.250000  0.500000    0.01562500  40 t-inv F
 -0.000000  0.500000  0.500000    0.01562500  41 t-inv F
  0.250000  0.500000  0.500000    0.01562500  42 t-inv F
  0.500000  0.500000  0.500000    0.01562500  43 t-inv F
 -0.250000  0.500000  0.500000    0.01562500  44 t-inv F
  0.000000 -0.250000  0.500000    0.01562500  45 t-inv F
  0.250000 -0.250000  0.500000    0.01562500  46 t-inv F
  0.500000 -0.250000  0.500000    0.01562500  47 t-inv F
 -0.250000 -0.250000  0.500000    0.01562500  48 t-inv F
  0.000000  0.000000 -0.250000    0.01562500  49 t-inv F
  0.250000  0.000000 -0.250000    0.01562500  50 t-inv F
  0.500000  0.000000 -0.250000    0.01562500  51 t-inv F
 -0.250000  0.000000 -0.250000    0.01562500  52 t-inv F
  0.000000  0.250000 -0.250000    0.01562500  53 t-inv F
  0.250000  0.250000 -0.250000    0.01562500  54 t-inv F
  0.500000  0.250000 -0.250000    0.01562500  55 t-inv F
 -0.250000  0.250000 -0.250000    0.01562500  56 t-inv F
  0.000000  0.500000 -0.250000    0.01562500  57 t-inv F
  0.250000  0.500000 -0.250000    0.01562500  58 t-inv F
  0.500000  0.500000 -0.250000    0.01562500  59 t-inv F
 -0.250000  0.500000 -0.250000    0.01562500  60 t-inv F
  0.000000 -0.250000 -0.250000    0.01562500  61 t-inv F
  0.250000 -0.250000 -0.250000    0.01562500  62 t-inv F
  0.500000 -0.250000 -0.250000    0.01562500  63 t-inv F
 -0.250000 -0.250000 -0.250000    0.01562500  64 t-inv F

 ----------------------------------------------------------------------------- 
|                                                                             |
|           W    W    AA    RRRRR   N    N  II  N    N   GGGG   !!!           |
|           W    W   A  A   R    R  NN   N  II  NN   N  G    G  !!!           |
|           W    W  A    A  R    R  N N  N  II  N N  N  G       !!!           |
|           W WW W  AAAAAA  RRRRR   N  N N  II  N  N N  G  GGG   !            |
|           WW  WW  A    A  R   R   N   NN  II  N   NN  G    G                |
|           W    W  A    A  R    R  N    N  II  N    N   GGGG   !!!           |
|                                                                             |
|      The number of bands has been changed from the values supplied          |
|      in the INCAR file. This is a result of running the parallel version.   |
|      The orbitals not found in the WAVECAR file will be initialized with    |
|      random numbers, which is usually adequate. For correlated              |
|      calculations, however, you should redo the groundstate calculation.    |
|      I found NBANDS    =       96  now  NBANDS  =     100                   |
|                                                                             |
 ----------------------------------------------------------------------------- 



--------------------------------------------------------------------------------------------------------




 Dimension of arrays:
   k-points           NKPTS =     64   k-points in BZ     NKDIM =     64   number of bands    NBANDS=    100
   number of dos      NEDOS =    301   number of ions     NIONS =      1
   non local maximal  LDIM  =      6   non local SUM 2l+1 LMDIM =     18
   total plane-waves  NPLWV =  21952
   max r-space proj   IRMAX =      1   max aug-charges    IRDMAX= 182324
   dimension x,y,z NGX =    28 NGY =   28 NGZ =   28
   dimension x,y,z NGXF=    56 NGYF=   56 NGZF=   56
   support grid    NGXF=   112 NGYF=  112 NGZF=  112
   ions per type =               1
   NGX,Y,Z   is equivalent  to a cutoff of  10.72, 10.72, 10.72 a.u.
   NGXF,Y,Z  is equivalent  to a cutoff of  21.44, 21.44, 21.44 a.u.

 SYSTEM =  Og_FCC                                  
 POSCAR =  Og_FCC                                  

 Startparameter for this run:
   NWRITE =      1    write-flag & timer
   PREC   = accura    normal or accurate (medium, high low for compatibility)
   ISTART =      1    job   : 0-new  1-cont  2-samecut
   ICHARG =      0    charge: 1-file 2-atom 10-const
   ISPIN  =      1    spin polarized calculation?
   LNONCOLLINEAR =      T non collinear calculations
   LSORBIT =      T    spin-orbit coupling
   INIWAV =      1    electr: 0-lowe 1-rand  2-diag
   LASPH  =      F    aspherical Exc in radial PAW
   METAGGA=      F    non-selfconsistent MetaGGA calc.

 Electronic Relaxation 1
   ENCUT  =  300.0 eV  22.05 Ry    4.70 a.u.   6.13  6.13  6.13*2*pi/ulx,y,z
   ENINI  =  300.0     initial cutoff
   ENAUG  =  361.0 eV  augmentation charge cutoff
   NELM   =      1;   NELMIN=  2; NELMDL=  0     # of ELM steps 
   EDIFF  = 0.1E-07   stopping-criterion for ELM
   LREAL  =      F    real-space projection
   NLSPLINE    = F    spline interpolate recip. space projectors
   LCOMPAT=      F    compatible to vasp.4.4
   GGA_COMPAT  = F    GGA compatible to vasp.4.4-vasp.4.6
   LMAXPAW     = -100 max onsite density
   LMAXMIX     =    2 max onsite mixed and CHGCAR
   VOSKOWN=      0    Vosko Wilk Nusair interpolation
   ROPT   =    0.00000
 Ionic relaxation
   EDIFFG = 0.1E-04   stopping-criterion for IOM
   NSW    =      1    number of steps for IOM
   NBLOCK =      1;   KBLOCK =      1    inner block; outer block 
   IBRION =     -1    ionic relax: 0-MD 1-quasi-New 2-CG
   NFREE  =      5    steps in history (QN), initial steepest desc. (CG)
   ISIF   =      3    stress and relaxation
   IWAVPR =     10    prediction:  0-non 1-charg 2-wave 3-comb
   ISYM   =      0    0-nonsym 1-usesym 2-fastsym
   LCORR  =      T    Harris-Foulkes like correction to forces

   POTIM  = 0.1000    time-step for ionic-motion
   TEIN   =    0.0    initial temperature
   TEBEG  =    0.0;   TEEND  =   0.0 temperature during run
   SMASS  =  -3.00    Nose mass-parameter (am)
   estimated Nose-frequenzy (Omega)   =  0.10E-29 period in steps =****** mass=  -0.431E-27a.u.
   SCALEE = 1.0000    scale energy and forces
   NPACO  =    256;   APACO  = 16.0  distance and # of slots for P.C.
   PSTRESS=    0.0 pullay stress

  Mass of Ions in am
   POMASS =   0.01
  Ionic Valenz
   ZVAL   =  18.00
  Atomic Wigner-Seitz radii
   RWIGS  =  -1.00
  virtual crystal weights 
   VCA    =   1.00
   NELECT =      18.0000    total number of electrons
   NUPDOWN=      -1.0000    fix difference up-down

 DOS related values:
   EMIN   =  10.00;   EMAX   =-10.00  energy-range for DOS
   EFERMI =   0.00
   ISMEAR =     0;   SIGMA  =   0.00  broadening in eV -4-tet -1-fermi 0-gaus

 Electronic relaxation 2 (details)
   IALGO  =     38    algorithm
   LDIAG  =      T    sub-space diagonalisation (order eigenvalues)
   LSUBROT=      F    optimize rotation matrix (better conditioning)
   TURBO    =      0    0=normal 1=particle mesh
   IRESTART =      0    0=no restart 2=restart with 2 vectors
   NREBOOT  =      0    no. of reboots
   NMIN     =      0    reboot dimension
   EREF     =   0.00    reference energy to select bands
   IMIX   =      1    mixing-type and parameters
     AMIX     =   0.40;   BMIX     =  1.00
     AMIX_MAG =   1.60;   BMIX_MAG =  1.00
     AMIN     =   0.10
     WC   =   100.;   INIMIX=   1;  MIXPRE=   1;  MAXMIX=  50

 Intra band minimization:
   WEIMIN = 0.0000     energy-eigenvalue tresh-hold
   EBREAK =  0.25E-10  absolut break condition
   DEPER  =   0.30     relativ break condition  

   TIME   =   0.40     timestep for ELM

  volume/ion in A,a.u.               =      57.90       390.71
  Fermi-wavevector in a.u.,A,eV,Ry     =   1.109038  2.095777 16.734680  1.229964
  Thomas-Fermi vector in A             =   2.245572
 
 Write flags
   LWAVE        =      T    write WAVECAR
   LDOWNSAMPLE  =      F    k-point downsampling of WAVECAR
   LCHARG       =      F    write CHGCAR
   LVTOT        =      F    write LOCPOT, total local potential
   LVHAR        =      F    write LOCPOT, Hartree potential only
   LELF         =      F    write electronic localiz. function (ELF)
   LORBIT       =      0    0 simple, 1 ext, 2 COOP (PROOUT), +10 PAW based schemes


 Dipole corrections
   LMONO  =      F    monopole corrections only (constant potential shift)
   LDIPOL =      F    correct potential (dipole corrections)
   IDIPOL =      0    1-x, 2-y, 3-z, 4-all directions 
   EPSILON=  1.0000000 bulk dielectric constant

 Exchange correlation treatment:
   GGA     =    PE    GGA type
   LEXCH   =     8    internal setting for exchange type
   VOSKOWN=      0    Vosko Wilk Nusair interpolation
   EXXOEP  =     0    0=HF, 1=EXX-LHF (local Hartree Fock) 2=EXX OEP
   LHFCALC =     T    Hartree Fock is set to
   LSYMGRAD=     F    symmetrize gradient (conserves proper symmetry)
   PRECFOCK=normal    Normal, Fast or Accurate (Low or Medium for compatibility)
   LRHFCALC=     F    long range Hartree Fock
   LRSCOR  =     F    long range correlation only (use DFT for short range part)
   LTHOMAS =     F    Thomas Fermi screening in HF
   LMODELHF=     F    short range full HF, long range fraction AEXX
   ENCUT4O =  -1.0   cutoff for four orbital integrals eV
   LMAXFOCK=     4    L truncation for augmentation on plane wave grid
   LMAXFOCKAE=   4    L truncation for all-electron charge restoration on plane wave grid
   NMAXFOCKAE=   1    number of basis functions for all-electron charge restoration
   LFOCKAEDFT=     F  apply the AE augmentation even for DFT
   NKREDX  =     1    reduce k-point grid by
   NKREDY  =     1    reduce k-point grid by
   NKREDZ  =     1    reduce k-point grid by
   SHIFTRED=     F    shift reduced grid of Gamma
   HFKIDENT=     F    idential grid for each k-point
   ODDONLY =     F    use only odd q-grid points
   EVENONLY=     F    use only even q-grid points
   HFALPHA =   -1.0000 decay constant for conv. correction
   MCALPHA =    0.0000 extent of test-charge in conv. correction in multipole expansion
   AEXX    =    1.0000 exact exchange contribution
   HFSCREEN=    0.0000 screening length (either q_TF or 0.3 A-1)
   HFSCREENC=   0.0000 screening length for correlation (either q_TF or 0.3 A-1)
   HFRCUT  =    0.0000 spherical cutoff for potential kernel
   ALDAX   =    0.0000 LDA exchange part
   AGGAX   =    0.0000 GGA exchange part
   ALDAC   =    0.0000 LDA correlation
   AGGAC   =    0.0000 GGA correlation
   ENCUTFOCK=  -1.0 apply spherical cutoff to Coloumb kernel
   NBANDSGWLOW=     1    first orbital included in HF term
   NBLOCK_FOCK=    64    blocking factor in FOCK_ACC
 Linear response parameters
   LEPSILON=     F    determine dielectric tensor
   LRPA    =     F    only Hartree local field effects (RPA)
   LNABLA  =     F    use nabla operator in PAW spheres
   LVEL    =     F    velocity operator in full k-point grid
   LINTERFAST=   F  fast interpolation
   KINTER  =     0    interpolate to denser k-point grid
   CSHIFT  =0.1000    complex shift for real part using Kramers Kronig
   OMEGAMAX=  -1.0    maximum frequency
   DEG_THRESHOLD= 0.2000000E-02 threshold for treating states as degnerate
   RTIME   =   -0.100 relaxation time in fs
  (WPLASMAI=    0.000 imaginary part of plasma frequency in eV, 0.658/RTIME)
   DFIELD  = 0.0000000 0.0000000 0.0000000 field for delta impulse in time
 
 Orbital magnetization related:
   ORBITALMAG=     F  switch on orbital magnetization
   LCHIMAG   =     F  perturbation theory with respect to B field
   DQ        =  0.001000  dq finite difference perturbation B field
   LLRAUG    =     F  two centre corrections for induced B field

 Response functions by sum over occupied states:
   ALGO    =QPGW       execute GW part
   LFXC    =     F    include DFT xc kernel in TD-HF and W
   LADDER  =     F    particle hole ladder diagrams for BSE/TD-HF and W (Nano-quanta)
   LRPAFORCE=     F   calculate RPA forces
   LHARTREE=     T    include Hartree terms (bubbles-RPA) in BSE/TD-HF
   IBSE    =     0    BSE modus: 0 exact, 1 time-evolution (store matrix), 10 time-evolution (implicit)
   KPOINT  =    -1   0   0   0    k-point index at which BSE equation is solved (and G at which response is eval.)
   LTRIPLET=     F    triplet instead of singlet excitation (BSE only)
   LRSRPA  =     F    range separated RPA (total - short) in ACFDT
   LTCTE   =     F    use test-charge test-electron dielectric function
   LTETE   =     F    use test-electron test-electron dielectric function
   LFXCEPS =     F    determine f_xc=epsilon-1/Xi Sharma and Gross kernel
   LFXHEG  =     F    model exchange using f_x(G,k_F) from free electron gas
   NATURALO=     2    0 natural orbitals, 1 only virtual, 2 only occupied-virtual rotation
   L2ORDER =     F    2nd order terms only
   LMP2LT   =     F    use LT MP2
   LUSEW   =     F    use screened W from WXXXX.tmp files instead of (screened) HF kernel
   ENCUTGW = 200.0    cutoff for response function in eV
   ENCUTGWSOFT = 200.0 soft cutoff for Coulomb kernel in GW response function in eV
   ENCUTLF =  -1.0    cutoff for local field effects
   LMAXMP2 =    -1    maximum L for one center terms
   SCISSOR =   0.0    scissor correction
   NOMEGA  =    50    number of frequencies
   NOMEGAR =    50    number of frequencies along real axis
   NBANDSGW=    -1    number of bands for which selfenergy shift is calculated
   NBANDSGWLOW=     1 lowest band included in GW (to exclude core correlation)
   NBANDSO =    -1    number of bands for electron-hole treatment (occupied)
   NBANDSV =    -1    number of bands for electron-hole treatment (virtual)
   NELM    =     1    number of iterations in solving QP/BSE equation
   NELMHF  =     1    number of iterations in the inner HF iteration
   DIM     =     3    dimensionality of system (0=0D molecules, 3=3D)
   ANTIRES =     0    antiresonant part (0) no TDA (1) w=0 exact (2) accurate
   OMEGAMAX= -30.0    maximum frequency
   OMEGAMIN= -30.000    minimum frequency
   OMEGATL =-200.0    maximum frequency of tail
   OMEGAGRID=     0    grid type (0 default)
   CSHIFT  =-0.100    complex shift used in evaluation of response functions
   SELFENERGY=   F    calculate selfenergy instead of QP shifts
   LSPECTRAL =   T    use spectral functions                   
   LSPECTRALGW=   F   use spectral functions to calculate int dz G(w-z) W(z) (more accurate)
   LSINGLES  =   F   calculate the singles contribution to the correlation energy
   LFERMIGW  =   F   update Fermi-energy in the Greens function

   ODDONLYGW =   F    avoid all even points for polarizability 
   EVENONLYGW=   F    avoid all odd  points for polarizability 
   NKREDLFX  =   1   NKREDLFY  =   1   NKREDLFZ  =   1

   TELESCOPE =   0   use telescope k-point sampling
   TAUPAR    =   1   number of TAU groups used in imaginary time calculation
   OMEGAPAR  =  -1   number of OMEGA groups used in imaginary frequency calculation



--------------------------------------------------------------------------------------------------------


 Static calculation
 charge density and potential will be updated during run
 non collinear spin polarized calculation
 Variant of blocked Davidson
 Davidson routine will perform the subspace rotation
 perform sub-space diagonalisation
    after iterative eigenvector-optimisation
 Kerker-like  mixing scheme
 using additional bands           91
 reciprocal scheme for non local part
 use partial core corrections
 calculate Harris-corrections to forces 
   (improved forces if not selfconsistent)
 use gradient corrections 
 use of overlap-Matrix (Vanderbilt PP)
 Gauss-broadening in eV      SIGMA  =   0.00


--------------------------------------------------------------------------------------------------------


  energy-cutoff  :      300.00
  volume of cell :       57.90
      direct lattice vectors                 reciprocal lattice vectors
     4.342345876  0.000000000  0.000000000     0.230290269 -0.132958149 -0.094015609
     2.171172938  3.760581840 -0.000000000     0.000000000  0.265916298 -0.094015609
     2.171172938  1.253527280  3.545510561    -0.000000000  0.000000000  0.282046826

  length of vectors
     4.342345876  4.342345876  4.342345876     0.282046826  0.282046826  0.282046826


 
 old parameters found on file WAVECAR:
  energy-cutoff  :      300.00
  volume of cell :       57.90
      direct lattice vectors                 reciprocal lattice vectors
     4.342345876  0.000000000  0.000000000     0.230290269 -0.132958149 -0.094015609
     2.171172938  3.760581840 -0.000000000     0.000000000  0.265916298 -0.094015609
     2.171172938  1.253527280  3.545510561    -0.000000000  0.000000000  0.282046826

  length of vectors

 
 k-points in units of 2pi/SCALE and weight: k-points                                
   0.00000000  0.00000000  0.00000000       0.016
   0.05757257 -0.03323954 -0.02350390       0.016
   0.11514513 -0.06647907 -0.04700780       0.016
  -0.05757257  0.03323954  0.02350390       0.016
   0.00000000  0.06647907 -0.02350390       0.016
   0.05757257  0.03323954 -0.04700780       0.016
   0.11514513  0.00000000 -0.07051171       0.016
  -0.05757257  0.09971861  0.00000000       0.016
   0.00000000  0.13295815 -0.04700780       0.016
   0.05757257  0.09971861 -0.07051171       0.016
   0.11514513  0.06647907 -0.09401561       0.016
  -0.05757257  0.16619769 -0.02350390       0.016
  -0.00000000 -0.06647907  0.02350390       0.016
   0.05757257 -0.09971861 -0.00000000       0.016
   0.11514513 -0.13295815 -0.02350390       0.016
  -0.05757257 -0.03323954  0.04700780       0.016
  -0.00000000  0.00000000  0.07051171       0.016
   0.05757257 -0.03323954  0.04700780       0.016
   0.11514513 -0.06647907  0.02350390       0.016
  -0.05757257  0.03323954  0.09401561       0.016
  -0.00000000  0.06647907  0.04700780       0.016
   0.05757257  0.03323954  0.02350390       0.016
   0.11514513  0.00000000 -0.00000000       0.016
  -0.05757257  0.09971861  0.07051171       0.016
  -0.00000000  0.13295815  0.02350390       0.016
   0.05757257  0.09971861  0.00000000       0.016
   0.11514513  0.06647907 -0.02350390       0.016
  -0.05757257  0.16619769  0.04700780       0.016
  -0.00000000 -0.06647907  0.09401561       0.016
   0.05757257 -0.09971861  0.07051171       0.016
   0.11514513 -0.13295815  0.04700780       0.016
  -0.05757257 -0.03323954  0.11751951       0.016
  -0.00000000  0.00000000  0.14102341       0.016
   0.05757257 -0.03323954  0.11751951       0.016
   0.11514513 -0.06647907  0.09401561       0.016
  -0.05757257  0.03323954  0.16452732       0.016
  -0.00000000  0.06647907  0.11751951       0.016
   0.05757257  0.03323954  0.09401561       0.016
   0.11514513  0.00000000  0.07051171       0.016
  -0.05757257  0.09971861  0.14102341       0.016
  -0.00000000  0.13295815  0.09401561       0.016
   0.05757257  0.09971861  0.07051171       0.016
   0.11514513  0.06647907  0.04700780       0.016
  -0.05757257  0.16619769  0.11751951       0.016
  -0.00000000 -0.06647907  0.16452732       0.016
   0.05757257 -0.09971861  0.14102341       0.016
   0.11514513 -0.13295815  0.11751951       0.016
  -0.05757257 -0.03323954  0.18803122       0.016
   0.00000000 -0.00000000 -0.07051171       0.016
   0.05757257 -0.03323954 -0.09401561       0.016
   0.11514513 -0.06647907 -0.11751951       0.016
  -0.05757257  0.03323954 -0.04700780       0.016
   0.00000000  0.06647907 -0.09401561       0.016
   0.05757257  0.03323954 -0.11751951       0.016
   0.11514513 -0.00000000 -0.14102341       0.016
  -0.05757257  0.09971861 -0.07051171       0.016
   0.00000000  0.13295815 -0.11751951       0.016
   0.05757257  0.09971861 -0.14102341       0.016
   0.11514513  0.06647907 -0.16452732       0.016
  -0.05757257  0.16619769 -0.09401561       0.016
   0.00000000 -0.06647907 -0.04700780       0.016
   0.05757257 -0.09971861 -0.07051171       0.016
   0.11514513 -0.13295815 -0.09401561       0.016
  -0.05757257 -0.03323954 -0.02350390       0.016
 
 k-points in reciprocal lattice and weights: k-points                                
   0.00000000  0.00000000  0.00000000       0.016
   0.25000000  0.00000000  0.00000000       0.016
   0.50000000  0.00000000  0.00000000       0.016
  -0.25000000 -0.00000000 -0.00000000       0.016
   0.00000000  0.25000000 -0.00000000       0.016
   0.25000000  0.25000000  0.00000000       0.016
   0.50000000  0.25000000  0.00000000       0.016
  -0.25000000  0.25000000 -0.00000000       0.016
   0.00000000  0.50000000 -0.00000000       0.016
   0.25000000  0.50000000  0.00000000       0.016
   0.50000000  0.50000000  0.00000000       0.016
  -0.25000000  0.50000000 -0.00000000       0.016
  -0.00000000 -0.25000000  0.00000000       0.016
   0.25000000 -0.25000000  0.00000000       0.016
   0.50000000 -0.25000000  0.00000000       0.016
  -0.25000000 -0.25000000 -0.00000000       0.016
   0.00000000  0.00000000  0.25000000       0.016
   0.25000000 -0.00000000  0.25000000       0.016
   0.50000000 -0.00000000  0.25000000       0.016
  -0.25000000 -0.00000000  0.25000000       0.016
  -0.00000000  0.25000000  0.25000000       0.016
   0.25000000  0.25000000  0.25000000       0.016
   0.50000000  0.25000000  0.25000000       0.016
  -0.25000000  0.25000000  0.25000000       0.016
  -0.00000000  0.50000000  0.25000000       0.016
   0.25000000  0.50000000  0.25000000       0.016
   0.50000000  0.50000000  0.25000000       0.016
  -0.25000000  0.50000000  0.25000000       0.016
   0.00000000 -0.25000000  0.25000000       0.016
   0.25000000 -0.25000000  0.25000000       0.016
   0.50000000 -0.25000000  0.25000000       0.016
  -0.25000000 -0.25000000  0.25000000       0.016
   0.00000000  0.00000000  0.50000000       0.016
   0.25000000  0.00000000  0.50000000       0.016
   0.50000000 -0.00000000  0.50000000       0.016
  -0.25000000  0.00000000  0.50000000       0.016
  -0.00000000  0.25000000  0.50000000       0.016
   0.25000000  0.25000000  0.50000000       0.016
   0.50000000  0.25000000  0.50000000       0.016
  -0.25000000  0.25000000  0.50000000       0.016
  -0.00000000  0.50000000  0.50000000       0.016
   0.25000000  0.50000000  0.50000000       0.016
   0.50000000  0.50000000  0.50000000       0.016
  -0.25000000  0.50000000  0.50000000       0.016
   0.00000000 -0.25000000  0.50000000       0.016
   0.25000000 -0.25000000  0.50000000       0.016
   0.50000000 -0.25000000  0.50000000       0.016
  -0.25000000 -0.25000000  0.50000000       0.016
   0.00000000  0.00000000 -0.25000000       0.016
   0.25000000  0.00000000 -0.25000000       0.016
   0.50000000  0.00000000 -0.25000000       0.016
  -0.25000000  0.00000000 -0.25000000       0.016
   0.00000000  0.25000000 -0.25000000       0.016
   0.25000000  0.25000000 -0.25000000       0.016
   0.50000000  0.25000000 -0.25000000       0.016
  -0.25000000  0.25000000 -0.25000000       0.016
   0.00000000  0.50000000 -0.25000000       0.016
   0.25000000  0.50000000 -0.25000000       0.016
   0.50000000  0.50000000 -0.25000000       0.016
  -0.25000000  0.50000000 -0.25000000       0.016
   0.00000000 -0.25000000 -0.25000000       0.016
   0.25000000 -0.25000000 -0.25000000       0.016
   0.50000000 -0.25000000 -0.25000000       0.016
  -0.25000000 -0.25000000 -0.25000000       0.016
 
 position of ions in fractional coordinates (direct lattice) 
   0.00000000  0.00000000  0.00000000
 
 position of ions in cartesian coordinates  (Angst):
   0.00000000  0.00000000  0.00000000
 
 Euler angles ALPHA=     0.0000000  BETA=     0.0000000

 transformation matrix from SAXIS to cartesian coordinates
 ---------------------------------------------------------
     1.0000000 m_x     0.0000000 m_y     0.0000000 m_z
     0.0000000 m_x     1.0000000 m_y     0.0000000 m_z
     0.0000000 m_x     0.0000000 m_y     1.0000000 m_z

 transformation matrix from cartesian coordinates to SAXIS
 ---------------------------------------------------------
     1.0000000 m_x     0.0000000 m_y     0.0000000 m_z
     0.0000000 m_x     1.0000000 m_y     0.0000000 m_z
     0.0000000 m_x     0.0000000 m_y     1.0000000 m_z




--------------------------------------------------------------------------------------------------------


 k-point  1 :   0.0000 0.0000 0.0000  plane waves:    1402
 k-point  2 :   0.2500 0.0000 0.0000  plane waves:    1358
 k-point  3 :   0.5000 0.0000 0.0000  plane waves:    1400
 k-point  4 :  -0.2500-0.0000-0.0000  plane waves:    1358
 k-point  5 :   0.0000 0.2500-0.0000  plane waves:    1358
 k-point  6 :   0.2500 0.2500 0.0000  plane waves:    1362
 k-point  7 :   0.5000 0.2500 0.0000  plane waves:    1374
 k-point  8 :  -0.2500 0.2500-0.0000  plane waves:    1352
 k-point  9 :   0.0000 0.5000-0.0000  plane waves:    1400
 k-point 10 :   0.2500 0.5000 0.0000  plane waves:    1374
 k-point 11 :   0.5000 0.5000 0.0000  plane waves:    1384
 k-point 12 :  -0.2500 0.5000-0.0000  plane waves:    1374
 k-point 13 :  -0.0000-0.2500 0.0000  plane waves:    1358
 k-point 14 :   0.2500-0.2500 0.0000  plane waves:    1352
 k-point 15 :   0.5000-0.2500 0.0000  plane waves:    1374
 k-point 16 :  -0.2500-0.2500-0.0000  plane waves:    1362
 k-point 17 :   0.0000 0.0000 0.2500  plane waves:    1358
 k-point 18 :   0.2500-0.0000 0.2500  plane waves:    1362
 k-point 19 :   0.5000-0.0000 0.2500  plane waves:    1374
 k-point 20 :  -0.2500-0.0000 0.2500  plane waves:    1352
 k-point 21 :  -0.0000 0.2500 0.2500  plane waves:    1362
 k-point 22 :   0.2500 0.2500 0.2500  plane waves:    1358
 k-point 23 :   0.5000 0.2500 0.2500  plane waves:    1352
 k-point 24 :  -0.2500 0.2500 0.2500  plane waves:    1374
 k-point 25 :  -0.0000 0.5000 0.2500  plane waves:    1374
 k-point 26 :   0.2500 0.5000 0.2500  plane waves:    1352
 k-point 27 :   0.5000 0.5000 0.2500  plane waves:    1374
 k-point 28 :  -0.2500 0.5000 0.2500  plane waves:    1368
 k-point 29 :   0.0000-0.2500 0.2500  plane waves:    1352
 k-point 30 :   0.2500-0.2500 0.2500  plane waves:    1374
 k-point 31 :   0.5000-0.2500 0.2500  plane waves:    1368
 k-point 32 :  -0.2500-0.2500 0.2500  plane waves:    1374
 k-point 33 :   0.0000 0.0000 0.5000  plane waves:    1400
 k-point 34 :   0.2500 0.0000 0.5000  plane waves:    1374
 k-point 35 :   0.5000-0.0000 0.5000  plane waves:    1384
 k-point 36 :  -0.2500 0.0000 0.5000  plane waves:    1374
 k-point 37 :  -0.0000 0.2500 0.5000  plane waves:    1374
 k-point 38 :   0.2500 0.2500 0.5000  plane waves:    1352
 k-point 39 :   0.5000 0.2500 0.5000  plane waves:    1374
 k-point 40 :  -0.2500 0.2500 0.5000  plane waves:    1368
 k-point 41 :  -0.0000 0.5000 0.5000  plane waves:    1384
 k-point 42 :   0.2500 0.5000 0.5000  plane waves:    1374
 k-point 43 :   0.5000 0.5000 0.5000  plane waves:    1400
 k-point 44 :  -0.2500 0.5000 0.5000  plane waves:    1374
 k-point 45 :   0.0000-0.2500 0.5000  plane waves:    1374
 k-point 46 :   0.2500-0.2500 0.5000  plane waves:    1368
 k-point 47 :   0.5000-0.2500 0.5000  plane waves:    1374
 k-point 48 :  -0.2500-0.2500 0.5000  plane waves:    1352
 k-point 49 :   0.0000 0.0000-0.2500  plane waves:    1358
 k-point 50 :   0.2500 0.0000-0.2500  plane waves:    1352
 k-point 51 :   0.5000 0.0000-0.2500  plane waves:    1374
 k-point 52 :  -0.2500 0.0000-0.2500  plane waves:    1362
 k-point 53 :   0.0000 0.2500-0.2500  plane waves:    1352
 k-point 54 :   0.2500 0.2500-0.2500  plane waves:    1374
 k-point 55 :   0.5000 0.2500-0.2500  plane waves:    1368
 k-point 56 :  -0.2500 0.2500-0.2500  plane waves:    1374
 k-point 57 :   0.0000 0.5000-0.2500  plane waves:    1374
 k-point 58 :   0.2500 0.5000-0.2500  plane waves:    1368
 k-point 59 :   0.5000 0.5000-0.2500  plane waves:    1374
 k-point 60 :  -0.2500 0.5000-0.2500  plane waves:    1352
 k-point 61 :   0.0000-0.2500-0.2500  plane waves:    1362
 k-point 62 :   0.2500-0.2500-0.2500  plane waves:    1374
 k-point 63 :   0.5000-0.2500-0.2500  plane waves:    1352
 k-point 64 :  -0.2500-0.2500-0.2500  plane waves:    1358

 maximum and minimum number of plane-waves per node :      1402     1352

 maximum number of plane-waves:      1402
 maximum index in each direction: 
   IXMAX=    6   IYMAX=    6   IZMAX=    6
   IXMIN=   -6   IYMIN=   -6   IZMIN=   -6


 serial   3D FFT for wavefunctions
 parallel 3D FFT for charge:
    minimum data exchange during FFTs selected (reduces bandwidth)


 FFT grid for exact exchange (Hartree Fock) 
  NGX = 20; NGY = 20; NGZ = 20

 
 Radii for the augmentation spheres in the non-local exchange
 for species   1 augmentation radius   1.202 (default was   1.202)
 error exchange integrals (PW-AE in eV) (mean, max) 0.801 3.766 density error[0,qmax] 0.0260
 Maximum index for augmentation-charges in exchange          959
  SETUP_FOCK is finished

 total amount of memory used by VASP MPI-rank0    88711. kBytes
=======================================================================

   base      :      30000. kBytes
   nonl-proj :       6508. kBytes
   fftplans  :      10640. kBytes
   grid      :      11239. kBytes
   one-center:         62. kBytes
   HF        :        129. kBytes
   nonlr-proj:        437. kBytes
   wavefun   :      29696. kBytes
 
     INWAV:  cpu time    0.8115: real time    0.8109
 charge density for first step will be calculated from the start-wavefunctions


--------------------------------------------------------------------------------------------------------


 Maximum index for augmentation-charges        37385 (set IRDMAX)


--------------------------------------------------------------------------------------------------------


 initial charge from wavefunction
    FEWALD:  cpu time    0.0548: real time    0.0547

 The Fermi energy was updated, please check that it is located mid-gap
 values below the HOMO (VB) or above the LUMO (CB) will cause erroneous energies
 E-fermi :   3.1462

 Response functions by sum over occupied states:
 ===============================================
   NOMEGA  =    50    number of frequencies
   NOMEGAR =    50    number of frequencies along real axis
   OMEGAMAX=  32.61   maximum frequency
   OMEGAMIN=   0.26   minimum frequency
   OMEGATL = 183.78   maximum frequency of tail
   CSHIFT  =  0.848   complex shift used in evaluation of response functions


 Energies iw= 
 ============
   0.000   0.000   0.605   0.000   1.208   0.000   1.807   0.000   2.399   0.000
   2.983   0.000   3.558   0.000   4.124   0.000   4.680   0.000   5.225   0.000
   5.761   0.000   6.289   0.000   6.809   0.000   7.322   0.000   7.829   0.000
   8.334   0.000   8.836   0.000   9.338   0.000   9.842   0.000  10.349   0.000
  10.862   0.000  11.384   0.000  11.917   0.000  12.464   0.000  13.028   0.000
  13.612   0.000  14.222   0.000  14.861   0.000  15.536   0.000  16.252   0.000
  17.018   0.000  17.842   0.000  18.736   0.000  19.714   0.000  20.791   0.000
  21.992   0.000  23.340   0.000  24.874   0.000  26.638   0.000  28.695   0.000
  31.132   0.000  34.070   0.000  37.687   0.000  42.253   0.000  48.199   0.000
  56.258   0.000  67.782   0.000  85.576   0.000 116.568   0.000 183.782   0.000
 

IMPORTANT INFORMATION: All symmetrisations will be switched off!
NOSYMM: (Re-)initialisation of all symmetry stuff for point group C_1.

 
 KPOINTS: k-points                                

Automatic generation of k-mesh.
Space group operators:
 irot       det(A)        alpha          n_x          n_y          n_z        tau_x        tau_y        tau_z
    1     1.000000     0.000000     1.000000     0.000000     0.000000     0.000000     0.000000     0.000000
 
 Subroutine IBZKPT returns following result:
 ===========================================
 
 Found     64 irreducible k-points:
 
 Following reciprocal coordinates:
            Coordinates               Weight
  0.000000  0.000000  0.000000      1.000000
  0.250000  0.000000  0.000000      1.000000
  0.500000  0.000000  0.000000      1.000000
 -0.250000 -0.000000 -0.000000      1.000000
  0.000000  0.250000 -0.000000      1.000000
  0.250000  0.250000  0.000000      1.000000
  0.500000  0.250000  0.000000      1.000000
 -0.250000  0.250000 -0.000000      1.000000
  0.000000  0.500000 -0.000000      1.000000
  0.250000  0.500000  0.000000      1.000000
  0.500000  0.500000  0.000000      1.000000
 -0.250000  0.500000 -0.000000      1.000000
 -0.000000 -0.250000  0.000000      1.000000
  0.250000 -0.250000  0.000000      1.000000
  0.500000 -0.250000  0.000000      1.000000
 -0.250000 -0.250000 -0.000000      1.000000
  0.000000  0.000000  0.250000      1.000000
  0.250000 -0.000000  0.250000      1.000000
  0.500000 -0.000000  0.250000      1.000000
 -0.250000 -0.000000  0.250000      1.000000
 -0.000000  0.250000  0.250000      1.000000
  0.250000  0.250000  0.250000      1.000000
  0.500000  0.250000  0.250000      1.000000
 -0.250000  0.250000  0.250000      1.000000
 -0.000000  0.500000  0.250000      1.000000
  0.250000  0.500000  0.250000      1.000000
  0.500000  0.500000  0.250000      1.000000
 -0.250000  0.500000  0.250000      1.000000
  0.000000 -0.250000  0.250000      1.000000
  0.250000 -0.250000  0.250000      1.000000
  0.500000 -0.250000  0.250000      1.000000
 -0.250000 -0.250000  0.250000      1.000000
  0.000000  0.000000  0.500000      1.000000
  0.250000  0.000000  0.500000      1.000000
  0.500000 -0.000000  0.500000      1.000000
 -0.250000  0.000000  0.500000      1.000000
 -0.000000  0.250000  0.500000      1.000000
  0.250000  0.250000  0.500000      1.000000
  0.500000  0.250000  0.500000      1.000000
 -0.250000  0.250000  0.500000      1.000000
 -0.000000  0.500000  0.500000      1.000000
  0.250000  0.500000  0.500000      1.000000
  0.500000  0.500000  0.500000      1.000000
 -0.250000  0.500000  0.500000      1.000000
  0.000000 -0.250000  0.500000      1.000000
  0.250000 -0.250000  0.500000      1.000000
  0.500000 -0.250000  0.500000      1.000000
 -0.250000 -0.250000  0.500000      1.000000
  0.000000  0.000000 -0.250000      1.000000
  0.250000  0.000000 -0.250000      1.000000
  0.500000  0.000000 -0.250000      1.000000
 -0.250000  0.000000 -0.250000      1.000000
  0.000000  0.250000 -0.250000      1.000000
  0.250000  0.250000 -0.250000      1.000000
  0.500000  0.250000 -0.250000      1.000000
 -0.250000  0.250000 -0.250000      1.000000
  0.000000  0.500000 -0.250000      1.000000
  0.250000  0.500000 -0.250000      1.000000
  0.500000  0.500000 -0.250000      1.000000
 -0.250000  0.500000 -0.250000      1.000000
  0.000000 -0.250000 -0.250000      1.000000
  0.250000 -0.250000 -0.250000      1.000000
  0.500000 -0.250000 -0.250000      1.000000
 -0.250000 -0.250000 -0.250000      1.000000
 
 Following cartesian coordinates:
            Coordinates               Weight
  0.000000  0.000000  0.000000      1.000000
  0.057573 -0.033240 -0.023504      1.000000
  0.115145 -0.066479 -0.047008      1.000000
 -0.057573  0.033240  0.023504      1.000000
  0.000000  0.066479 -0.023504      1.000000
  0.057573  0.033240 -0.047008      1.000000
  0.115145  0.000000 -0.070512      1.000000
 -0.057573  0.099719  0.000000      1.000000
  0.000000  0.132958 -0.047008      1.000000
  0.057573  0.099719 -0.070512      1.000000
  0.115145  0.066479 -0.094016      1.000000
 -0.057573  0.166198 -0.023504      1.000000
 -0.000000 -0.066479  0.023504      1.000000
  0.057573 -0.099719 -0.000000      1.000000
  0.115145 -0.132958 -0.023504      1.000000
 -0.057573 -0.033240  0.047008      1.000000
 -0.000000  0.000000  0.070512      1.000000
  0.057573 -0.033240  0.047008      1.000000
  0.115145 -0.066479  0.023504      1.000000
 -0.057573  0.033240  0.094016      1.000000
 -0.000000  0.066479  0.047008      1.000000
  0.057573  0.033240  0.023504      1.000000
  0.115145  0.000000 -0.000000      1.000000
 -0.057573  0.099719  0.070512      1.000000
 -0.000000  0.132958  0.023504      1.000000
  0.057573  0.099719  0.000000      1.000000
  0.115145  0.066479 -0.023504      1.000000
 -0.057573  0.166198  0.047008      1.000000
 -0.000000 -0.066479  0.094016      1.000000
  0.057573 -0.099719  0.070512      1.000000
  0.115145 -0.132958  0.047008      1.000000
 -0.057573 -0.033240  0.117520      1.000000
 -0.000000  0.000000  0.141023      1.000000
  0.057573 -0.033240  0.117520      1.000000
  0.115145 -0.066479  0.094016      1.000000
 -0.057573  0.033240  0.164527      1.000000
 -0.000000  0.066479  0.117520      1.000000
  0.057573  0.033240  0.094016      1.000000
  0.115145  0.000000  0.070512      1.000000
 -0.057573  0.099719  0.141023      1.000000
 -0.000000  0.132958  0.094016      1.000000
  0.057573  0.099719  0.070512      1.000000
  0.115145  0.066479  0.047008      1.000000
 -0.057573  0.166198  0.117520      1.000000
 -0.000000 -0.066479  0.164527      1.000000
  0.057573 -0.099719  0.141023      1.000000
  0.115145 -0.132958  0.117520      1.000000
 -0.057573 -0.033240  0.188031      1.000000
  0.000000 -0.000000 -0.070512      1.000000
  0.057573 -0.033240 -0.094016      1.000000
  0.115145 -0.066479 -0.117520      1.000000
 -0.057573  0.033240 -0.047008      1.000000
  0.000000  0.066479 -0.094016      1.000000
  0.057573  0.033240 -0.117520      1.000000
  0.115145 -0.000000 -0.141023      1.000000
 -0.057573  0.099719 -0.070512      1.000000
  0.000000  0.132958 -0.117520      1.000000
  0.057573  0.099719 -0.141023      1.000000
  0.115145  0.066479 -0.164527      1.000000
 -0.057573  0.166198 -0.094016      1.000000
  0.000000 -0.066479 -0.047008      1.000000
  0.057573 -0.099719 -0.070512      1.000000
  0.115145 -0.132958 -0.094016      1.000000
 -0.057573 -0.033240 -0.023504      1.000000
 
 files read and symmetry switched off, memory is now:
 total amount of memory used by VASP MPI-rank0    88711. kBytes
=======================================================================

   base      :      30000. kBytes
   nonl-proj :       6508. kBytes
   fftplans  :      10640. kBytes
   grid      :      11239. kBytes
   one-center:         62. kBytes
   HF        :        129. kBytes
   nonlr-proj:        437. kBytes
   wavefun   :      29696. kBytes
 
 Basis sets for responsefunctions:
 =================================
 k-point  1 :   0.0000 0.0000 0.0000  plane waves:     678
 k-point  2 :   0.2500 0.0000 0.0000  plane waves:     718
 k-point  3 :   0.5000 0.0000 0.0000  plane waves:     736
 k-point  4 :  -0.2500-0.0000-0.0000  plane waves:     718
 k-point  5 :   0.0000 0.2500-0.0000  plane waves:     718
 k-point  6 :   0.2500 0.2500 0.0000  plane waves:     702
 k-point  7 :   0.5000 0.2500 0.0000  plane waves:     740
 k-point  8 :  -0.2500 0.2500-0.0000  plane waves:     746
 k-point  9 :   0.0000 0.5000-0.0000  plane waves:     736
 k-point 10 :   0.2500 0.5000 0.0000  plane waves:     740
 k-point 11 :   0.5000 0.5000 0.0000  plane waves:     776
 k-point 12 :  -0.2500 0.5000-0.0000  plane waves:     740
 k-point 13 :  -0.0000-0.2500 0.0000  plane waves:     718
 k-point 14 :   0.2500-0.2500 0.0000  plane waves:     746
 k-point 15 :   0.5000-0.2500 0.0000  plane waves:     740
 k-point 16 :  -0.2500-0.2500-0.0000  plane waves:     702
 k-point 17 :   0.0000 0.0000 0.2500  plane waves:     718
 k-point 18 :   0.2500-0.0000 0.2500  plane waves:     702
 k-point 19 :   0.5000-0.0000 0.2500  plane waves:     740
 k-point 20 :  -0.2500-0.0000 0.2500  plane waves:     746
 k-point 21 :  -0.0000 0.2500 0.2500  plane waves:     702
 k-point 22 :   0.2500 0.2500 0.2500  plane waves:     718
 k-point 23 :   0.5000 0.2500 0.2500  plane waves:     746
 k-point 24 :  -0.2500 0.2500 0.2500  plane waves:     740
 k-point 25 :  -0.0000 0.5000 0.2500  plane waves:     740
 k-point 26 :   0.2500 0.5000 0.2500  plane waves:     746
 k-point 27 :   0.5000 0.5000 0.2500  plane waves:     740
 k-point 28 :  -0.2500 0.5000 0.2500  plane waves:     760
 k-point 29 :   0.0000-0.2500 0.2500  plane waves:     746
 k-point 30 :   0.2500-0.2500 0.2500  plane waves:     740
 k-point 31 :   0.5000-0.2500 0.2500  plane waves:     760
 k-point 32 :  -0.2500-0.2500 0.2500  plane waves:     740
 k-point 33 :   0.0000 0.0000 0.5000  plane waves:     736
 k-point 34 :   0.2500 0.0000 0.5000  plane waves:     740
 k-point 35 :   0.5000-0.0000 0.5000  plane waves:     776
 k-point 36 :  -0.2500 0.0000 0.5000  plane waves:     740
 k-point 37 :  -0.0000 0.2500 0.5000  plane waves:     740
 k-point 38 :   0.2500 0.2500 0.5000  plane waves:     746
 k-point 39 :   0.5000 0.2500 0.5000  plane waves:     740
 k-point 40 :  -0.2500 0.2500 0.5000  plane waves:     760
 k-point 41 :  -0.0000 0.5000 0.5000  plane waves:     776
 k-point 42 :   0.2500 0.5000 0.5000  plane waves:     740
 k-point 43 :   0.5000 0.5000 0.5000  plane waves:     736
 k-point 44 :  -0.2500 0.5000 0.5000  plane waves:     740
 k-point 45 :   0.0000-0.2500 0.5000  plane waves:     740
 k-point 46 :   0.2500-0.2500 0.5000  plane waves:     760
 k-point 47 :   0.5000-0.2500 0.5000  plane waves:     740
 k-point 48 :  -0.2500-0.2500 0.5000  plane waves:     746
 k-point 49 :   0.0000 0.0000-0.2500  plane waves:     718
 k-point 50 :   0.2500 0.0000-0.2500  plane waves:     746
 k-point 51 :   0.5000 0.0000-0.2500  plane waves:     740
 k-point 52 :  -0.2500 0.0000-0.2500  plane waves:     702
 k-point 53 :   0.0000 0.2500-0.2500  plane waves:     746
 k-point 54 :   0.2500 0.2500-0.2500  plane waves:     740
 k-point 55 :   0.5000 0.2500-0.2500  plane waves:     760
 k-point 56 :  -0.2500 0.2500-0.2500  plane waves:     740
 k-point 57 :   0.0000 0.5000-0.2500  plane waves:     740
 k-point 58 :   0.2500 0.5000-0.2500  plane waves:     760
 k-point 59 :   0.5000 0.5000-0.2500  plane waves:     740
 k-point 60 :  -0.2500 0.5000-0.2500  plane waves:     746
 k-point 61 :   0.0000-0.2500-0.2500  plane waves:     702
 k-point 62 :   0.2500-0.2500-0.2500  plane waves:     740
 k-point 63 :   0.5000-0.2500-0.2500  plane waves:     746
 k-point 64 :  -0.2500-0.2500-0.2500  plane waves:     718

 maximum and minimum number of plane-waves per node :       776      678

 maximum number of plane-waves:       776
 maximum index in each direction: 
   IXMAX=    5   IYMAX=    5   IZMAX=    5
   IXMIN=   -5   IYMIN=   -5   IZMIN=   -5

 exchange correlation table for  LEXCH =        8
   RHO(1)=    0.500       N(1)  =     2000
   RHO(2)=  100.500       N(2)  =     4000
 shmem allocating  50 responsefunctions rank=   390
 response function shared by NCSHMEM nodes    1
 all allocation done, memory is now:
 total amount of memory used by VASP MPI-rank0   344842. kBytes
=======================================================================

   base      :      30000. kBytes
   nonl-proj :       6508. kBytes
   fftplans  :      10640. kBytes
   grid      :      11239. kBytes
   one-center:         62. kBytes
   HF        :        129. kBytes
   nonlr-proj:        437. kBytes
   wavefun   :      89088. kBytes
   2eintegral:      52428. kBytes
   fockhandle:      10276. kBytes
   response  :     134035. kBytes
 


--------------------------------------------------------------------------------------------------------


NQ=   1    0.0000    0.0000    0.0000, 
       CHI:  cpu time    0.7510: real time    0.7504
   KRAMKRO:  cpu time    0.4565: real time    0.4562
    LFIELD:  cpu time    0.0000: real time    0.0000

 HEAD OF MICROSCOPIC DIELECTRIC TENSOR (INDEPENDENT PARTICLE)
 -------------------------------------
 w=     0.000     0.000
        32.3604   -0.0000      0.0531   -3.4243      0.0453    5.5890
         0.0531    3.4243     32.2470    0.0000     -0.0383   -5.2057
         0.0453   -5.5890     -0.0383    5.2057     32.2674   -0.0000

        0.000        32.292    -0.000 dielectric  constant
 
 w=     0.605     0.000
        20.1160   18.2123      2.3548   -1.7952     -3.7717    3.0198
        -2.2970    1.8675     20.0544   18.1353      3.5156   -2.8101
         3.8208   -2.9583     -3.5560    2.7582     20.0652   18.1491

        0.605        20.078    18.166 dielectric  constant
 
 w=     1.208     0.000
         4.7539   15.3778      1.9162    0.2129     -3.1342   -0.2726
        -1.9216   -0.1525      4.7597   15.3135      2.9192    0.2564
         3.1296    0.3239     -2.9151   -0.2988      4.7586   15.3249

        1.208         4.757    15.339 dielectric  constant
 
 w=     1.807     0.000
         1.8666    8.2394      0.9195    0.6146     -1.5240   -0.9669
        -0.9383   -0.5854      1.8866    8.2083      1.4189    0.9017
         1.5080    0.9917     -1.4056   -0.9222      1.8831    8.2137

        1.807         1.879     8.220 dielectric  constant
 
 w=     2.399     0.000
         2.9873    5.5002      0.4427    0.5038     -0.7419   -0.8048
        -0.4583   -0.4896      3.0039    5.4851      0.6907    0.7501
         0.7286    0.8168     -0.6798   -0.7601      3.0010    5.4877

        2.399         2.997     5.491 dielectric  constant
 
 w=     2.983     0.000
         3.6791    5.3573      0.2392    0.3742     -0.4047   -0.6012
        -0.2508   -0.3665      3.6915    5.3491      0.3770    0.5606
         0.3949    0.6078     -0.3688   -0.5661      3.6893    5.3505

        2.983         3.687     5.352 dielectric  constant
 
 w=     3.558     0.000
         3.0529    5.6360      0.1435    0.2819     -0.2450   -0.4543
        -0.1523   -0.2773      3.0622    5.6310      0.2280    0.4240
         0.2376    0.4582     -0.2218   -0.4273      3.0606    5.6319

        3.558         3.059     5.633 dielectric  constant
 
 w=     4.124     0.000
         2.2335    5.0225      0.0925    0.2192     -0.1594   -0.3540
        -0.0993   -0.2162      2.2407    5.0193      0.1479    0.3305
         0.1536    0.3565     -0.1431   -0.3326      2.2394    5.0199

        4.124         2.238     5.021 dielectric  constant
 
 w=     4.680     0.000
         2.2579    4.3055      0.0626    0.1748     -0.1088   -0.2827
        -0.0679   -0.1727      2.2636    4.3033      0.1006    0.2636
         0.1042    0.2844     -0.0968   -0.2651      2.2626    4.3037

        4.680         2.261     4.304 dielectric  constant
 
 w=     5.225     0.000
         2.6004    4.2832      0.0446    0.1422     -0.0784   -0.2302
        -0.0490   -0.1407      2.6050    4.2816      0.0724    0.2144
         0.0746    0.2315     -0.0693   -0.2155      2.6042    4.2819

        5.225         2.603     4.282 dielectric  constant
 
 w=     5.761     0.000
         2.5664    4.8734      0.0339    0.1188     -0.0599   -0.1924
        -0.0375   -0.1176      2.5703    4.8722      0.0555    0.1792
         0.0567    0.1934     -0.0530   -0.1800      2.5697    4.8724

        5.761         2.569     4.873 dielectric  constant
 
 w=     6.289     0.000
         1.6532    5.4312      0.0262    0.1024     -0.0467   -0.1659
        -0.0293   -0.1015      1.6565    5.4303      0.0433    0.1549
         0.0440    0.1667     -0.0412   -0.1555      1.6560    5.4304

        6.289         1.655     5.431 dielectric  constant
 
 w=     6.809     0.000
         0.5302    5.0528      0.0190    0.0902     -0.0344   -0.1462
        -0.0217   -0.0895      0.5330    5.0521      0.0315    0.1369
         0.0321    0.1468     -0.0296   -0.1374      0.5325    5.0522

        6.809         0.532     5.052 dielectric  constant
 
 w=     7.322     0.000
         0.0549    4.3491      0.0117    0.0793     -0.0222   -0.1287
        -0.0141   -0.0787      0.0574    4.3486      0.0194    0.1204
         0.0202    0.1291     -0.0178   -0.1208      0.0569    4.3487

        7.322         0.056     4.349 dielectric  constant
 
 w=     7.829     0.000
        -0.1605    3.8658      0.0050    0.0678     -0.0110   -0.1101
        -0.0071   -0.0673     -0.1584    3.8654      0.0082    0.1021
         0.0092    0.1105     -0.0068   -0.1025     -0.1587    3.8655

        7.829        -0.159     3.866 dielectric  constant
 
 w=     8.334     0.000
        -0.3218    3.4448      0.0025    0.0539     -0.0065   -0.0879
        -0.0043   -0.0536     -0.3199    3.4444      0.0046    0.0795
         0.0049    0.0882     -0.0034   -0.0798     -0.3203    3.4445

        8.334        -0.321     3.445 dielectric  constant
 
 w=     8.836     0.000
        -0.4438    3.1175      0.0069    0.0450     -0.0132   -0.0736
        -0.0086   -0.0448     -0.4421    3.1172      0.0135    0.0660
         0.0118    0.0738     -0.0124   -0.0662     -0.4424    3.1173

        8.836        -0.443     3.117 dielectric  constant
 
 w=     9.338     0.000
        -0.6244    2.7567      0.0088    0.0433     -0.0159   -0.0705
        -0.0102   -0.0431     -0.6228    2.7564      0.0168    0.0652
         0.0147    0.0707     -0.0158   -0.0654     -0.6231    2.7565

        9.338        -0.623     2.757 dielectric  constant
 
 w=     9.842     0.000
        -0.6718    2.2902      0.0070    0.0412     -0.0129   -0.0669
        -0.0083   -0.0410     -0.6705    2.2899      0.0133    0.0629
         0.0118    0.0671     -0.0123   -0.0631     -0.6707    2.2900

        9.842        -0.671     2.290 dielectric  constant
 
 w=    10.349     0.000
        -0.5437    1.9489      0.0052    0.0381     -0.0099   -0.0619
        -0.0064   -0.0379     -0.5425    1.9487      0.0098    0.0584
         0.0089    0.0620     -0.0089   -0.0585     -0.5427    1.9488

       10.349        -0.543     1.949 dielectric  constant
 
 w=    10.862     0.000
        -0.4731    1.7686      0.0035    0.0352     -0.0070   -0.0571
        -0.0046   -0.0350     -0.4720    1.7684      0.0067    0.0539
         0.0061    0.0572     -0.0059   -0.0540     -0.4722    1.7684

       10.862        -0.472     1.768 dielectric  constant
 
 w=    11.384     0.000
        -0.4999    1.5451      0.0016    0.0319     -0.0038   -0.0518
        -0.0025   -0.0317     -0.4989    1.5449      0.0033    0.0488
         0.0030    0.0519     -0.0026   -0.0489     -0.4991    1.5449

       11.384        -0.499     1.545 dielectric  constant
 
 w=    11.917     0.000
        -0.4589    1.2361      0.0003    0.0278     -0.0017   -0.0451
        -0.0012   -0.0276     -0.4579    1.2359      0.0012    0.0423
         0.0009    0.0452     -0.0006   -0.0424     -0.4581    1.2360

       11.917        -0.458     1.236 dielectric  constant
 
 w=    12.464     0.000
        -0.3015    0.9724      0.0007    0.0240     -0.0021   -0.0391
        -0.0015   -0.0239     -0.3006    0.9722      0.0017    0.0364
         0.0015    0.0392     -0.0012   -0.0365     -0.3008    0.9723

       12.464        -0.301     0.972 dielectric  constant
 
 w=    13.028     0.000
        -0.1244    0.8052      0.0014    0.0217     -0.0032   -0.0353
        -0.0021   -0.0216     -0.1236    0.8051      0.0028    0.0329
         0.0025    0.0354     -0.0023   -0.0330     -0.1237    0.8051

       13.028        -0.124     0.805 dielectric  constant
 
 w=    13.612     0.000
         0.0416    0.6763      0.0016    0.0200     -0.0034   -0.0326
        -0.0023   -0.0199      0.0424    0.6763      0.0031    0.0303
         0.0029    0.0327     -0.0026   -0.0304      0.0422    0.6763

       13.612         0.042     0.676 dielectric  constant
 
 w=    14.222     0.000
         0.2218    0.5951      0.0016    0.0185     -0.0033   -0.0301
        -0.0022   -0.0184      0.2225    0.5950      0.0030    0.0280
         0.0028    0.0302     -0.0026   -0.0281      0.2224    0.5950

       14.222         0.222     0.595 dielectric  constant
 
 w=    14.861     0.000
         0.3786    0.5772      0.0014    0.0170     -0.0031   -0.0277
        -0.0020   -0.0170      0.3792    0.5772      0.0028    0.0258
         0.0026    0.0277     -0.0024   -0.0258      0.3791    0.5772

       14.861         0.379     0.577 dielectric  constant
 
 w=    15.536     0.000
         0.4903    0.5847      0.0013    0.0156     -0.0028   -0.0254
        -0.0019   -0.0156      0.4908    0.5846      0.0026    0.0237
         0.0024    0.0255     -0.0022   -0.0237      0.4907    0.5846

       15.536         0.491     0.585 dielectric  constant
 
 w=    16.252     0.000
         0.5808    0.6055      0.0012    0.0143     -0.0026   -0.0233
        -0.0017   -0.0143      0.5813    0.6055      0.0024    0.0217
         0.0022    0.0234     -0.0021   -0.0218      0.5812    0.6055

       16.252         0.581     0.605 dielectric  constant
 
 w=    17.018     0.000
         0.6206    0.6505      0.0011    0.0131     -0.0023   -0.0214
        -0.0015   -0.0131      0.6211    0.6504      0.0022    0.0199
         0.0020    0.0214     -0.0019   -0.0200      0.6210    0.6504

       17.018         0.621     0.650 dielectric  constant
 
 w=    17.842     0.000
         0.6302    0.6547      0.0010    0.0120     -0.0020   -0.0195
        -0.0013   -0.0120      0.6307    0.6547      0.0019    0.0182
         0.0017    0.0196     -0.0016   -0.0182      0.6306    0.6547

       17.842         0.631     0.655 dielectric  constant
 
 w=    18.736     0.000
         0.6427    0.6788      0.0008    0.0109     -0.0018   -0.0177
        -0.0012   -0.0108      0.6431    0.6788      0.0016    0.0165
         0.0015    0.0177     -0.0014   -0.0165      0.6431    0.6788

       18.736         0.643     0.679 dielectric  constant
 
 w=    19.714     0.000
         0.5804    0.7029      0.0007    0.0098     -0.0016   -0.0160
        -0.0011   -0.0098      0.5808    0.7028      0.0015    0.0149
         0.0013    0.0160     -0.0012   -0.0149      0.5807    0.7028

       19.714         0.581     0.703 dielectric  constant
 
 w=    20.791     0.000
         0.4645    0.6245      0.0006    0.0088     -0.0014   -0.0144
        -0.0009   -0.0088      0.4648    0.6245      0.0013    0.0134
         0.0011    0.0144     -0.0011   -0.0134      0.4648    0.6245

       20.791         0.465     0.625 dielectric  constant
 
 w=    21.992     0.000
         0.4446    0.4225      0.0005    0.0079     -0.0012   -0.0128
        -0.0008   -0.0079      0.4449    0.4225      0.0011    0.0119
         0.0010    0.0128     -0.0009   -0.0120      0.4449    0.4225

       21.992         0.445     0.422 dielectric  constant
 
 w=    23.340     0.000
         0.5645    0.2769      0.0005    0.0069     -0.0010   -0.0113
        -0.0007   -0.0069      0.5647    0.2769      0.0010    0.0105
         0.0008    0.0113     -0.0008   -0.0106      0.5647    0.2769

       23.340         0.565     0.277 dielectric  constant
 
 w=    24.874     0.000
         0.6987    0.2351      0.0005    0.0060     -0.0010   -0.0098
        -0.0007   -0.0060      0.6989    0.2351      0.0009    0.0091
         0.0008    0.0098     -0.0008   -0.0091      0.6988    0.2351

       24.874         0.699     0.235 dielectric  constant
 
 w=    26.638     0.000
         0.7820    0.2535      0.0007    0.0052     -0.0014   -0.0085
        -0.0009   -0.0052      0.7822    0.2535      0.0013    0.0079
         0.0012    0.0085     -0.0011   -0.0079      0.7822    0.2535

       26.638         0.782     0.254 dielectric  constant
 
 w=    28.695     0.000
         0.7964    0.2675      0.0008    0.0049     -0.0015   -0.0080
        -0.0010   -0.0049      0.7966    0.2675      0.0014    0.0075
         0.0014    0.0080     -0.0013   -0.0075      0.7966    0.2675

       28.695         0.797     0.268 dielectric  constant
 
 w=    31.132     0.000
         0.8040    0.2146      0.0003    0.0045     -0.0006   -0.0073
        -0.0004   -0.0045      0.8041    0.2146      0.0006    0.0068
         0.0005    0.0073     -0.0005   -0.0068      0.8041    0.2146

       31.132         0.804     0.215 dielectric  constant
 
 w=    34.070     0.000
         0.8584    0.1597      0.0000    0.0036     -0.0002   -0.0059
        -0.0001   -0.0036      0.8585    0.1597      0.0001    0.0055
         0.0001    0.0059     -0.0001   -0.0055      0.8585    0.1597

       34.070         0.858     0.160 dielectric  constant
 
 w=    37.687     0.000
         0.9404    0.1295     -0.0000    0.0028     -0.0001   -0.0046
        -0.0001   -0.0028      0.9405    0.1295      0.0001    0.0043
         0.0000    0.0046     -0.0000   -0.0043      0.9405    0.1295

       37.687         0.940     0.130 dielectric  constant
 
 w=    42.253     0.000
         1.0390    0.1568      0.0000    0.0022     -0.0002   -0.0036
        -0.0001   -0.0022      1.0391    0.1568      0.0002    0.0033
         0.0001    0.0036     -0.0001   -0.0033      1.0391    0.1568

       42.253         1.039     0.157 dielectric  constant
 
 w=    48.199     0.000
         1.0533    0.2926      0.0000    0.0017     -0.0001   -0.0028
        -0.0001   -0.0017      1.0533    0.2926      0.0001    0.0026
         0.0001    0.0028     -0.0001   -0.0026      1.0533    0.2926

       48.199         1.053     0.293 dielectric  constant
 
 w=    56.258     0.000
         0.9005    0.3581      0.0000    0.0013     -0.0001   -0.0020
        -0.0000   -0.0013      0.9005    0.3581      0.0001    0.0019
         0.0000    0.0020     -0.0000   -0.0019      0.9005    0.3581

       56.258         0.901     0.358 dielectric  constant
 
 w=    67.782     0.000
         0.7851    0.1680      0.0000    0.0009     -0.0000   -0.0014
        -0.0000   -0.0009      0.7852    0.1680      0.0000    0.0013
         0.0000    0.0014     -0.0000   -0.0013      0.7852    0.1680

       67.782         0.785     0.168 dielectric  constant
 
 w=    85.576     0.000
         0.8493    0.0250      0.0000    0.0005     -0.0000   -0.0009
        -0.0000   -0.0005      0.8493    0.0250      0.0000    0.0008
         0.0000    0.0009     -0.0000   -0.0008      0.8493    0.0250

       85.576         0.849     0.025 dielectric  constant
 
 w=   116.568     0.000
         0.9372    0.0016      0.0000    0.0003     -0.0000   -0.0005
        -0.0000   -0.0003      0.9372    0.0016      0.0000    0.0004
         0.0000    0.0005     -0.0000   -0.0004      0.9372    0.0016

      116.568         0.937     0.002 dielectric  constant
 
 w=   183.782     0.000
         0.9787    0.0002     -0.0000    0.0001     -0.0000   -0.0002
        -0.0000   -0.0001      0.9787    0.0002      0.0000    0.0002
         0.0000    0.0002     -0.0000   -0.0002      0.9787    0.0002

      183.782         0.979     0.000 dielectric  constant
 
  XI_LOCAL:  cpu time    0.1217: real time    0.1216

 1 + v P,  with REDUCIBLE POLARIZABILTY P=P_0 (1 -(v+f) P_0)^-1
 -------------------------------------
 w=     0.000     0.000
        32.3168   -0.0000     -0.0531    3.4243     -0.0453   -5.5890
        -0.0531   -3.4243     32.1893   -0.0000      0.0383    5.2057
        -0.0453    5.5890      0.0383   -5.2057     32.2442    0.0000

        0.000        32.250    -0.000 dielectric  constant
 
 w=     0.605     0.000
        20.1182   18.1822     -2.3548    1.7952      3.7717   -3.0198
         2.2970   -1.8675     20.0473   18.0990     -3.5156    2.8101
        -3.8208    2.9583      3.5560   -2.7582     20.0701   18.1363

        0.605        20.079    18.139 dielectric  constant
 
 w=     1.208     0.000
         4.7632   15.3773     -1.9162   -0.2129      3.1342    0.2726
         1.9216    0.1525      4.7630   15.3082     -2.9192   -0.2564
        -3.1296   -0.3239      2.9151    0.2988      4.7592   15.3328

        1.208         4.762    15.339 dielectric  constant
 
 w=     1.807     0.000
         1.8659    8.2403     -0.9195   -0.6146      1.5240    0.9669
         0.9383    0.5854      1.8795    8.2045     -1.4189   -0.9017
        -1.5080   -0.9917      1.4056    0.9222      1.8734    8.2174

        1.807         1.873     8.221 dielectric  constant
 
 w=     2.399     0.000
         2.9854    5.4974     -0.4427   -0.5038      0.7419    0.8048
         0.4583    0.4896      2.9953    5.4752     -0.6907   -0.7501
        -0.7286   -0.8168      0.6798    0.7601      2.9901    5.4853

        2.399         2.990     5.486 dielectric  constant
 
 w=     2.983     0.000
         3.6805    5.3529     -0.2392   -0.3742      0.4047    0.6012
         0.2508    0.3665      3.6893    5.3344     -0.3770   -0.5606
        -0.3949   -0.6078      0.3688    0.5661      3.6807    5.3437

        2.983         3.684     5.344 dielectric  constant
 
 w=     3.558     0.000
         3.0563    5.6356     -0.1435   -0.2819      0.2450    0.4543
         0.1523    0.2773      3.0672    5.6219     -0.2280   -0.4240
        -0.2376   -0.4582      0.2218    0.4273      3.0549    5.6240

        3.558         3.059     5.627 dielectric  constant
 
 w=     4.124     0.000
         2.2334    5.0236     -0.0925   -0.2192      0.1594    0.3540
         0.0993    0.2162      2.2415    5.0156     -0.1479   -0.3305
        -0.1536   -0.3565      0.1431    0.3326      2.2345    5.0115

        4.124         2.236     5.017 dielectric  constant
 
 w=     4.680     0.000
         2.2570    4.3047     -0.0626   -0.1748      0.1088    0.2827
         0.0679    0.1727      2.2612    4.2961     -0.1006   -0.2636
        -0.1042   -0.2844      0.0968    0.2651      2.2583    4.2927

        4.680         2.259     4.298 dielectric  constant
 
 w=     5.225     0.000
         2.5997    4.2819     -0.0446   -0.1422      0.0784    0.2302
         0.0490    0.1407      2.6048    4.2702     -0.0724   -0.2144
        -0.0746   -0.2315      0.0693    0.2155      2.6029    4.2672

        5.225         2.602     4.273 dielectric  constant
 
 w=     5.761     0.000
         2.5661    4.8707     -0.0339   -0.1188      0.0599    0.1924
         0.0375    0.1176      2.5759    4.8581     -0.0555   -0.1792
        -0.0567   -0.1934      0.0530    0.1800      2.5759    4.8542

        5.761         2.573     4.861 dielectric  constant
 
 w=     6.289     0.000
         1.6551    5.4288     -0.0262   -0.1024      0.0467    0.1659
         0.0293    0.1015      1.6711    5.4213     -0.0433   -0.1549
        -0.0440   -0.1667      0.0412    0.1555      1.6746    5.4186

        6.289         1.667     5.423 dielectric  constant
 
 w=     6.809     0.000
         0.5321    5.0515     -0.0190   -0.0902      0.0344    0.1462
         0.0217    0.0895      0.5458    5.0531     -0.0315   -0.1369
        -0.0321   -0.1468      0.0296    0.1374      0.5509    5.0549

        6.809         0.543     5.053 dielectric  constant
 
 w=     7.322     0.000
         0.0572    4.3482     -0.0117   -0.0793      0.0222    0.1287
         0.0141    0.0787      0.0644    4.3511     -0.0194   -0.1204
        -0.0202   -0.1291      0.0178    0.1208      0.0670    4.3570

        7.322         0.063     4.352 dielectric  constant
 
 w=     7.829     0.000
        -0.1577    3.8664     -0.0050   -0.0678      0.0110    0.1101
         0.0071    0.0673     -0.1525    3.8668     -0.0082   -0.1021
        -0.0092   -0.1105      0.0068    0.1025     -0.1545    3.8735

        7.829        -0.155     3.869 dielectric  constant
 
 w=     8.334     0.000
        -0.3208    3.4465     -0.0025   -0.0539      0.0065    0.0879
         0.0043    0.0536     -0.3145    3.4461     -0.0046   -0.0795
        -0.0049   -0.0882      0.0034    0.0798     -0.3195    3.4509

        8.334        -0.318     3.448 dielectric  constant
 
 w=     8.836     0.000
        -0.4437    3.1181     -0.0069   -0.0450      0.0132    0.0736
         0.0086    0.0448     -0.4362    3.1195     -0.0135   -0.0660
        -0.0118   -0.0738      0.0124    0.0662     -0.4434    3.1216

        8.836        -0.441     3.120 dielectric  constant
 
 w=     9.338     0.000
        -0.6237    2.7572     -0.0088   -0.0433      0.0159    0.0705
         0.0102    0.0431     -0.6176    2.7610     -0.0168   -0.0652
        -0.0147   -0.0707      0.0158    0.0654     -0.6248    2.7591

        9.338        -0.622     2.759 dielectric  constant
 
 w=     9.842     0.000
        -0.6720    2.2911     -0.0070   -0.0412      0.0129    0.0669
         0.0083    0.0410     -0.6680    2.2954     -0.0133   -0.0629
        -0.0118   -0.0671      0.0123    0.0631     -0.6729    2.2909

        9.842        -0.671     2.292 dielectric  constant
 
 w=    10.349     0.000
        -0.5444    1.9483     -0.0052   -0.0381      0.0099    0.0619
         0.0064    0.0379     -0.5419    1.9529     -0.0098   -0.0584
        -0.0089   -0.0620      0.0089    0.0585     -0.5441    1.9475

       10.349        -0.543     1.950 dielectric  constant
 
 w=    10.862     0.000
        -0.4719    1.7671     -0.0035   -0.0352      0.0070    0.0571
         0.0046    0.0350     -0.4715    1.7717     -0.0067   -0.0539
        -0.0061   -0.0572      0.0059    0.0540     -0.4713    1.7667

       10.862        -0.472     1.768 dielectric  constant
 
 w=    11.384     0.000
        -0.4972    1.5458     -0.0016   -0.0319      0.0038    0.0518
         0.0025    0.0317     -0.4988    1.5483     -0.0033   -0.0488
        -0.0030   -0.0519      0.0026    0.0489     -0.4968    1.5449

       11.384        -0.498     1.546 dielectric  constant
 
 w=    11.917     0.000
        -0.4580    1.2388     -0.0003   -0.0278      0.0017    0.0451
         0.0012    0.0276     -0.4588    1.2390     -0.0012   -0.0423
        -0.0009   -0.0452      0.0006    0.0424     -0.4568    1.2374

       11.917        -0.458     1.238 dielectric  constant
 
 w=    12.464     0.000
        -0.3026    0.9741     -0.0007   -0.0240      0.0021    0.0391
         0.0015    0.0239     -0.3022    0.9743     -0.0017   -0.0364
        -0.0015   -0.0392      0.0012    0.0365     -0.3006    0.9735

       12.464        -0.302     0.974 dielectric  constant
 
 w=    13.028     0.000
        -0.1254    0.8056     -0.0014   -0.0217      0.0032    0.0353
         0.0021    0.0216     -0.1249    0.8063     -0.0028   -0.0329
        -0.0025   -0.0354      0.0023    0.0330     -0.1237    0.8059

       13.028        -0.125     0.806 dielectric  constant
 
 w=    13.612     0.000
         0.0410    0.6766     -0.0016   -0.0200      0.0034    0.0326
         0.0023    0.0199      0.0412    0.6771     -0.0031   -0.0303
        -0.0029   -0.0327      0.0026    0.0304      0.0422    0.6768

       13.612         0.041     0.677 dielectric  constant
 
 w=    14.222     0.000
         0.2212    0.5952     -0.0016   -0.0185      0.0033    0.0301
         0.0022    0.0184      0.2214    0.5955     -0.0030   -0.0280
        -0.0028   -0.0302      0.0026    0.0281      0.2222    0.5954

[...]
     10     -32.0837     -32.6376     -32.6407     -32.8327       0.7438       1.0000
     11     -24.4497     -24.7553     -24.7498     -24.8500       0.7498       1.0000
     12     -24.4463     -24.7552     -24.7498     -24.8501       0.7516       1.0000
     13      -9.6010      -9.7221      -9.7220      -9.7609       0.7569       1.0000
     14      -9.6002      -9.7214      -9.7212      -9.7604       0.7558       1.0000
     15      -0.3870      -0.4475      -0.4476      -0.4651       0.7749       1.0000
     16      -0.3826      -0.4458      -0.4458      -0.4642       0.7749       1.0000
     17       1.3665       1.3324       1.3324       1.3235       0.7921       1.0000
     18       1.3721       1.3347       1.3347       1.3249       0.7921       1.0000
     19       7.7330       7.7650       7.7607       7.7676       0.8020       0.0000
     20       7.7340       7.7654       7.7611       7.7678       0.8021       0.0000
     21       8.9706       9.0122       9.0120       9.0227       0.7955       0.0000
     22       8.9714       9.0125       9.0123       9.0229       0.7953       0.0000
     23      10.5461      10.6008      10.6002      10.6145       0.7913       0.0000
     24      10.5479      10.6015      10.6009      10.6149       0.7912       0.0000
     25      11.8527      11.9102      11.9100      11.9252       0.7903       0.0000
     26      11.8541      11.9107      11.9106      11.9255       0.7903       0.0000
     27      13.0305      13.1001      13.0999      13.1187       0.7876       0.0000
     28      13.0310      13.1003      13.1001      13.1187       0.7876       0.0000
     29      14.6251      14.7034      14.7025      14.7235       0.7864       0.0000
     30      14.6258      14.7036      14.7027      14.7235       0.7864       0.0000
     31      15.9877      16.0675      16.0670      16.0879       0.7915       0.0000
     32      15.9880      16.0675      16.0670      16.0878       0.7914       0.0000
     33      16.4087      16.4871      16.4868      16.5069       0.7952       0.0000
     34      16.4090      16.4872      16.4867      16.5067       0.7953       0.0000
     35      18.7655      18.8386      18.8373      18.8549       0.8036       0.0000
     36      18.7675      18.8397      18.8385      18.8558       0.8036       0.0000
     37      20.0838      20.1951      20.1951      20.2254       0.7855       0.0000
     38      20.0853      20.1956      20.1953      20.2254       0.7853       0.0000
     39      21.6492      21.7704      21.7704      21.8052       0.7770       0.0000
     40      21.6504      21.7715      21.7712      21.8059       0.7771       0.0000
 

 k-point  61 :       0.0000   -0.2500   -0.2500
  band No. DFT-energies  QP-energies  QP-e(diag)   sigma(DFT)    Z            occupation

      1     -39.4896     -40.1332     -40.1230     -40.3604       0.7274       1.0000
      2     -39.4830     -40.1324     -40.1241     -40.3618       0.7296       1.0000
      3     -39.4813     -40.1226     -40.1307     -40.3709       0.7300       1.0000
      4     -39.4795     -40.1210     -40.1291     -40.3681       0.7310       1.0000
      5     -32.1113     -32.6533     -32.6507     -32.8447       0.7354       1.0000
      6     -32.1064     -32.6528     -32.6520     -32.8473       0.7364       1.0000
      7     -32.0923     -32.6448     -32.6443     -32.8366       0.7416       1.0000
      8     -32.0882     -32.6439     -32.6435     -32.8357       0.7428       1.0000
      9     -32.0860     -32.6394     -32.6419     -32.8341       0.7431       1.0000
     10     -32.0837     -32.6389     -32.6403     -32.8323       0.7435       1.0000
     11     -24.4944     -24.8023     -24.7940     -24.8935       0.7507       1.0000
     12     -24.4922     -24.8018     -24.7936     -24.8934       0.7512       1.0000
     13      -9.4901      -9.6091      -9.6093      -9.6476       0.7568       1.0000
     14      -9.4889      -9.6084      -9.6086      -9.6472       0.7564       1.0000
     15       0.2259       0.1807       0.1764       0.1628       0.7840       1.0000
     16       0.2354       0.1844       0.1801       0.1649       0.7841       1.0000
     17       1.8203       1.7930       1.7935       1.7866       0.7959       1.0000
     18       1.8348       1.7983       1.7988       1.7896       0.7958       1.0000
     19       6.7829       6.8047       6.7993       6.8032       0.8068       0.0000
     20       6.7861       6.8060       6.8006       6.8041       0.8067       0.0000
     21       8.7883       8.8309       8.8309       8.8417       0.7981       0.0000
     22       8.7887       8.8310       8.8309       8.8415       0.7980       0.0000
     23      10.0652      10.1173      10.1166      10.1301       0.7915       0.0000
     24      10.0672      10.1181      10.1174      10.1306       0.7915       0.0000
     25      12.3345      12.3994      12.3987      12.4160       0.7880       0.0000
     26      12.3362      12.4001      12.3994      12.4165       0.7879       0.0000
     27      13.4370      13.5045      13.5039      13.5217       0.7900       0.0000
     28      13.4391      13.5054      13.5047      13.5222       0.7900       0.0000
     29      15.4619      15.5408      15.5409      15.5618       0.7901       0.0000
     30      15.4643      15.5421      15.5422      15.5629       0.7900       0.0000
     31      16.1558      16.2418      16.2416      16.2644       0.7906       0.0000
     32      16.1564      16.2420      16.2418      16.2645       0.7905       0.0000
     33      16.2646      16.3487      16.3487      16.3710       0.7905       0.0000
     34      16.2664      16.3495      16.3495      16.3715       0.7905       0.0000
     35      16.3243      16.4091      16.4092      16.4317       0.7910       0.0000
     36      16.3252      16.4094      16.4093      16.4315       0.7909       0.0000
     37      17.1193      17.1852      17.1850      17.2011       0.8030       0.0000
     38      17.1200      17.1856      17.1847      17.2005       0.8030       0.0000
     39      21.2991      21.3956      21.3953      21.4224       0.7797       0.0000
     40      21.3024      21.3983      21.3979      21.4249       0.7797       0.0000
 

 k-point  62 :       0.2500   -0.2500   -0.2500
  band No. DFT-energies  QP-energies  QP-e(diag)   sigma(DFT)    Z            occupation

      1     -39.5083     -40.1325     -40.1281     -40.3658       0.7228       1.0000
      2     -39.5040     -40.1317     -40.1281     -40.3658       0.7243       1.0000
      3     -39.4967     -40.1272     -40.1288     -40.3674       0.7260       1.0000
      4     -39.4875     -40.1261     -40.1300     -40.3696       0.7284       1.0000
      5     -32.1084     -32.6498     -32.6430     -32.8347       0.7361       1.0000
      6     -32.1054     -32.6487     -32.6439     -32.8362       0.7369       1.0000
      7     -32.1040     -32.6430     -32.6432     -32.8356       0.7369       1.0000
      8     -32.1012     -32.6423     -32.6435     -32.8360       0.7381       1.0000
      9     -32.0940     -32.6402     -32.6455     -32.8387       0.7406       1.0000
     10     -32.0915     -32.6401     -32.6444     -32.8375       0.7411       1.0000
     11     -24.4297     -24.7335     -24.7294     -24.8279       0.7526       1.0000
     12     -24.4270     -24.7329     -24.7288     -24.8279       0.7527       1.0000
     13      -9.6486      -9.7723      -9.7720      -9.8123       0.7543       1.0000
     14      -9.6479      -9.7716      -9.7713      -9.8117       0.7533       1.0000
     15      -0.5176      -0.5810      -0.5794      -0.5977       0.7719       1.0000
     16      -0.5114      -0.5784      -0.5768      -0.5961       0.7725       1.0000
     17       1.0845       1.0463       1.0468       1.0366       0.7889       1.0000
     18       1.0918       1.0493       1.0497       1.0385       0.7894       1.0000
     19       7.3211       7.3493       7.3469       7.3532       0.8040       0.0000
     20       7.3216       7.3496       7.3471       7.3533       0.8034       0.0000
     21       8.8799       8.9223       8.9220       8.9328       0.7956       0.0000
     22       8.8800       8.9223       8.9220       8.9328       0.7956       0.0000
     23      10.5668      10.6217      10.6205      10.6347       0.7917       0.0000
     24      10.5678      10.6221      10.6210      10.6350       0.7915       0.0000
     25      12.2997      12.3624      12.3620      12.3787       0.7886       0.0000
     26      12.3000      12.3626      12.3620      12.3786       0.7887       0.0000
     27      14.0128      14.0818      14.0802      14.0981       0.7903       0.0000
     28      14.0145      14.0831      14.0815      14.0993       0.7901       0.0000
     29      15.7017      15.7816      15.7814      15.8026       0.7905       0.0000
     30      15.7021      15.7823      15.7820      15.8032       0.7905       0.0000
     31      16.2512      16.3377      16.3370      16.3604       0.7864       0.0000
     32      16.2524      16.3382      16.3375      16.3607       0.7860       0.0000
     33      17.6430      17.7114      17.7100      17.7263       0.8039       0.0000
     34      17.6442      17.7124      17.7109      17.7272       0.8038       0.0000
     35      18.5527      18.6310      18.6305      18.6503       0.7974       0.0000
     36      18.5584      18.6360      18.6355      18.6551       0.7970       0.0000
     37      20.2363      20.3469      20.3468      20.3769       0.7859       0.0000
     38      20.2389      20.3493      20.3492      20.3792       0.7859       0.0000
     39      20.5795      20.6893      20.6889      20.7190       0.7843       0.0000
     40      20.5903      20.7000      20.6997      20.7299       0.7836       0.0000
 

 k-point  63 :       0.5000   -0.2500   -0.2500
  band No. DFT-energies  QP-energies  QP-e(diag)   sigma(DFT)    Z            occupation

      1     -39.4897     -40.1279     -40.1231     -40.3603       0.7275       1.0000
      2     -39.4844     -40.1270     -40.1252     -40.3628       0.7296       1.0000
      3     -39.4792     -40.1224     -40.1250     -40.3627       0.7310       1.0000
      4     -39.4747     -40.1208     -40.1226     -40.3599       0.7319       1.0000
      5     -32.1034     -32.6454     -32.6421     -32.8336       0.7377       1.0000
      6     -32.0990     -32.6450     -32.6433     -32.8350       0.7395       1.0000
      7     -32.0903     -32.6421     -32.6384     -32.8292       0.7418       1.0000
      8     -32.0855     -32.6411     -32.6427     -32.8348       0.7436       1.0000
      9     -32.0845     -32.6384     -32.6415     -32.8336       0.7436       1.0000
     10     -32.0831     -32.6376     -32.6410     -32.8329       0.7441       1.0000
     11     -24.4486     -24.7555     -24.7501     -24.8502       0.7506       1.0000
     12     -24.4471     -24.7549     -24.7494     -24.8500       0.7504       1.0000
     13      -9.6013      -9.7221      -9.7219      -9.7608       0.7563       1.0000
     14      -9.5999      -9.7214      -9.7213      -9.7604       0.7562       1.0000
     15      -0.3880      -0.4479      -0.4480      -0.4654       0.7748       1.0000
     16      -0.3815      -0.4454      -0.4454      -0.4640       0.7752       1.0000
     17       1.3651       1.3318       1.3319       1.3231       0.7920       1.0000
     18       1.3736       1.3352       1.3353       1.3252       0.7922       1.0000
     19       7.7328       7.7650       7.7607       7.7675       0.8021       0.0000
     20       7.7341       7.7654       7.7611       7.7678       0.8020       0.0000
     21       8.9707       9.0122       9.0120       9.0227       0.7955       0.0000
     22       8.9714       9.0125       9.0123       9.0229       0.7954       0.0000
     23      10.5460      10.6008      10.6002      10.6144       0.7913       0.0000
     24      10.5479      10.6015      10.6009      10.6149       0.7912       0.0000
     25      11.8524      11.9100      11.9098      11.9251       0.7904       0.0000
     26      11.8544      11.9109      11.9107      11.9256       0.7903       0.0000
     27      13.0305      13.1000      13.0999      13.1186       0.7877       0.0000
     28      13.0310      13.1004      13.1002      13.1188       0.7876       0.0000
     29      14.6249      14.7034      14.7024      14.7235       0.7864       0.0000
     30      14.6260      14.7036      14.7027      14.7235       0.7863       0.0000
     31      15.9876      16.0674      16.0669      16.0878       0.7915       0.0000
     32      15.9881      16.0676      16.0671      16.0880       0.7914       0.0000
     33      16.4086      16.4871      16.4868      16.5069       0.7952       0.0000
     34      16.4090      16.4872      16.4867      16.5067       0.7953       0.0000
     35      18.7653      18.8385      18.8373      18.8549       0.8036       0.0000
     36      18.7677      18.8398      18.8385      18.8558       0.8036       0.0000
     37      20.0838      20.1949      20.1949      20.2253       0.7856       0.0000
     38      20.0852      20.1957      20.1955      20.2256       0.7854       0.0000
     39      21.6495      21.7705      21.7708      21.8056       0.7770       0.0000
     40      21.6502      21.7714      21.7709      21.8055       0.7772       0.0000
 

 k-point  64 :      -0.2500   -0.2500   -0.2500
  band No. DFT-energies  QP-energies  QP-e(diag)   sigma(DFT)    Z            occupation

      1     -39.4869     -40.1294     -40.1238     -40.3614       0.7283       1.0000
      2     -39.4835     -40.1289     -40.1251     -40.3635       0.7291       1.0000
      3     -39.4801     -40.1247     -40.1281     -40.3674       0.7302       1.0000
      4     -39.4796     -40.1239     -40.1274     -40.3664       0.7305       1.0000
      5     -32.1016     -32.6480     -32.6449     -32.8377       0.7380       1.0000
      6     -32.0976     -32.6471     -32.6458     -32.8387       0.7397       1.0000
      7     -32.0942     -32.6431     -32.6424     -32.8341       0.7409       1.0000
      8     -32.0897     -32.6427     -32.6429     -32.8353       0.7420       1.0000
      9     -32.0881     -32.6422     -32.6443     -32.8371       0.7425       1.0000
     10     -32.0873     -32.6414     -32.6438     -32.8367       0.7426       1.0000
     11     -24.5144     -24.8232     -24.8144     -24.9146       0.7496       1.0000
     12     -24.5140     -24.8223     -24.8135     -24.9141       0.7485       1.0000
     13      -9.4424      -9.5605      -9.5603      -9.5978       0.7584       1.0000
     14      -9.4413      -9.5598      -9.5596      -9.5974       0.7578       1.0000
     15       0.3148       0.2716       0.2678       0.2549       0.7854       1.0000
     16       0.3250       0.2751       0.2713       0.2566       0.7857       1.0000
     17       2.5189       2.5006       2.5009       2.4964       0.8016       1.0000
     18       2.5353       2.5065       2.5067       2.4997       0.8019       1.0000
     19       5.9213       5.9365       5.9290       5.9308       0.8119       0.0000
     20       5.9238       5.9374       5.9299       5.9313       0.8116       0.0000
     21      10.1732      10.2260      10.2255      10.2392       0.7914       0.0000
     22      10.1753      10.2268      10.2262      10.2397       0.7913       0.0000
     23      11.3000      11.3628      11.3624      11.3793       0.7875       0.0000
     24      11.3005      11.3631      11.3628      11.3796       0.7874       0.0000
     25      11.5104      11.5623      11.5620      11.5755       0.7935       0.0000
     26      11.5106      11.5624      11.5622      11.5756       0.7936       0.0000
     27      12.1318      12.1971      12.1970      12.2148       0.7854       0.0000
     28      12.1321      12.1973      12.1972      12.2150       0.7854       0.0000
     29      13.2242      13.2932      13.2932      13.3116       0.7886       0.0000
     30      13.2242      13.2935      13.2932      13.3117       0.7887       0.0000
     31      13.4692      13.5382      13.5381      13.5565       0.7889       0.0000
     32      13.4714      13.5396      13.5394      13.5576       0.7889       0.0000
     33      16.2007      16.2866      16.2863      16.3090       0.7910       0.0000
     34      16.2019      16.2867      16.2864      16.3087       0.7912       0.0000
     35      18.3475      18.4364      18.4362      18.4595       0.7920       0.0000
     36      18.3490      18.4371      18.4369      18.4600       0.7921       0.0000
     37      18.6802      18.7731      18.7729      18.7973       0.7914       0.0000
     38      18.6819      18.7733      18.7729      18.7970       0.7912       0.0000
     39      20.9842      21.0711      21.0703      21.0933       0.7889       0.0000
     40      20.9865      21.0729      21.0720      21.0949       0.7888       0.0000
 


--------------------------------------------------------------------------------------------------------



IMPORTANT INFORMATION: All symmetrisations will be switched off!
NOSYMM: (Re-)initialisation of all symmetry stuff for point group C_1.

   GW_DIAG:  cpu time    0.4140: real time    0.4145
    GWLOOP:  cpu time  638.2122: real time  638.2213
 writing wavefunctions
    --------------------------------------------
   GWTOTAL:  cpu time  638.6771: real time  638.8100
    4ORBIT:  cpu time    0.0000: real time    0.0000

 Spin-Orbit-Coupling matrix elements

 Ion:    1  E_soc:    -33.0658814
 l=   1
     0.0000000    -5.0971036    -5.0971033
    -5.0971036     0.0000000    -5.0971041
    -5.0971033    -5.0971041     0.0000000
 l=   2
     0.0000000    -0.0828019     0.0000000    -0.0828020    -0.3310300
    -0.0828019     0.0000000    -0.2482726    -0.0828463    -0.0828021
     0.0000000    -0.2482726     0.0000000    -0.2482732     0.0000000
    -0.0828020    -0.0828463    -0.2482732     0.0000000    -0.0828016
    -0.3310300    -0.0828021     0.0000000    -0.0828016     0.0000000
 l=   3
     0.0000000     0.0000000     0.0000000     0.0000000     0.0000000     0.0000000     0.0000000
     0.0000000     0.0000000     0.0000000     0.0000000     0.0000000     0.0000000     0.0000000
     0.0000000     0.0000000     0.0000000     0.0000000     0.0000000     0.0000000     0.0000000
     0.0000000     0.0000000     0.0000000     0.0000000     0.0000000     0.0000000     0.0000000
     0.0000000     0.0000000     0.0000000     0.0000000     0.0000000     0.0000000     0.0000000
     0.0000000     0.0000000     0.0000000     0.0000000     0.0000000     0.0000000     0.0000000
     0.0000000     0.0000000     0.0000000     0.0000000     0.0000000     0.0000000     0.0000000

 total amount of memory used by VASP MPI-rank0    88711. kBytes
=======================================================================

   base      :      30000. kBytes
   nonl-proj :       6508. kBytes
   fftplans  :      10640. kBytes
   grid      :      11239. kBytes
   one-center:         62. kBytes
   HF        :        129. kBytes
   nonlr-proj:        437. kBytes
   wavefun   :      29696. kBytes
   2eintegral:          0. kBytes
   fockhandle:          0. kBytes
   response  :          0. kBytes
   cacher    :          0. kBytes
 
  
  
 General timing and accounting informations for this job:
 ========================================================
  
                  Total CPU time used (sec):      642.257
                            User time (sec):      641.129
                          System time (sec):        1.128
                         Elapsed time (sec):      643.210
  
                   Maximum memory used (kb):      531420.
                   Average memory used (kb):           0.
  
                          Minor page faults:       126890
                          Major page faults:            0
                 Voluntary context switches:        13075
