 vasp.5.4.4.18Apr17-6-g9f103f2a35 (build Nov 03 2018 10:20:46) complex          
  
 executed on             LinuxIFC date 2018.11.14  10:15:38
 running on   40 total cores
 distrk:  each k-point on    5 cores,    8 groups
 distr:  one band on NCORES_PER_BAND=   1 cores,    5 groups


--------------------------------------------------------------------------------------------------------


 INCAR:
 POTCAR:    PAW Og, JanMewes Oct 18               

 ----------------------------------------------------------------------------- 
|                                                                             |
|           W    W    AA    RRRRR   N    N  II  N    N   GGGG   !!!           |
|           W    W   A  A   R    R  NN   N  II  NN   N  G    G  !!!           |
|           W    W  A    A  R    R  N N  N  II  N N  N  G       !!!           |
|           W WW W  AAAAAA  RRRRR   N  N N  II  N  N N  G  GGG   !            |
|           WW  WW  A    A  R   R   N   NN  II  N   NN  G    G                |
|           W    W  A    A  R    R  N    N  II  N    N   GGGG   !!!           |
|                                                                             |
|      For optimal performance we recommend to set                            |
|        NCORE= 4 - approx SQRT( number of cores)                             |
|      NCORE specifies how many cores store one orbital (NPAR=cpu/NCORE).     |
|      This setting can  greatly improve the performance of VASP for DFT.     |
|      The default,   NCORE=1            might be grossly inefficient         |
|      on modern multi-core architectures or massively parallel machines.     |
|      Do your own testing !!!!                                               |
|      Unfortunately you need to use the default for GW and RPA calculations. |
|      (for HF NCORE is supported but not extensively tested yet)             |
|                                                                             |
 ----------------------------------------------------------------------------- 


 ----------------------------------------------------------------------------- 
|                                                                             |
|           W    W    AA    RRRRR   N    N  II  N    N   GGGG   !!!           |
|           W    W   A  A   R    R  NN   N  II  NN   N  G    G  !!!           |
|           W    W  A    A  R    R  N N  N  II  N N  N  G       !!!           |
|           W WW W  AAAAAA  RRRRR   N  N N  II  N  N N  G  GGG   !            |
|           WW  WW  A    A  R   R   N   NN  II  N   NN  G    G                |
|           W    W  A    A  R    R  N    N  II  N    N   GGGG   !!!           |
|                                                                             |
|      You have enabled k-point parallelism (KPAR>1).                         |
|      This developmental code was originally  written by Paul Kent at ORNL,  |
|      and carefully double checked in Vienna.                                |
|      GW as well as linear response parallelism added by Martijn Marsman     |
|      and Georg Kresse.                                                      |
|      Carefully verify results versus KPAR=1.                                |
|      Report problems to Paul Kent and Vienna.                               |
|                                                                             |
 ----------------------------------------------------------------------------- 

 POTCAR:    PAW Og, JanMewes Oct 18               
  local pseudopotential read in
  partial core-charges read in
  partial kinetic energy density read in
  kinetic energy density of atom read in
  atomic valenz-charges read in
  non local Contribution for L=           2  read in
    real space projection operators read in
  non local Contribution for L=           2  read in
    real space projection operators read in
  non local Contribution for L=           0  read in
    real space projection operators read in
  non local Contribution for L=           0  read in
    real space projection operators read in
  non local Contribution for L=           1  read in
    real space projection operators read in
  non local Contribution for L=           1  read in
    real space projection operators read in
    PAW grid and wavefunctions read in
 
   number of l-projection  operators is LMAX  =           6
   number of lm-projection operators is LMMAX =          18
 
  PAW Og, JanMewes Oct 18               :
 energy of atom  1       EATOM=-2640.5573
 kinetic energy error for atom=    0.6524 (will be added to EATOM!!)
 
 
 POSCAR: Og_FCC                                  
  positions in direct lattice
  velocities in cartesian coordinates
 exchange correlation table for  LEXCH =        8
   RHO(1)=    0.500       N(1)  =     2000
   RHO(2)=  100.500       N(2)  =     4000
 


--------------------------------------------------------------------------------------------------------


 ion  position               nearest neighbor table
   1  0.000  0.000  0.000-
 

IMPORTANT INFORMATION: All symmetrisations will be switched off!
NOSYMM: (Re-)initialisation of all symmetry stuff for point group C_1.

 
 
 KPOINTS: k-points                                

Automatic generation of k-mesh.
Space group operators:
 irot       det(A)        alpha          n_x          n_y          n_z        tau_x        tau_y        tau_z
    1     1.000000     0.000000     1.000000     0.000000     0.000000     0.000000     0.000000     0.000000
 
 Subroutine IBZKPT returns following result:
 ===========================================
 
 Found     64 irreducible k-points:
 
 Following reciprocal coordinates:
            Coordinates               Weight
  0.000000  0.000000  0.000000      1.000000
  0.250000  0.000000  0.000000      1.000000
  0.500000  0.000000  0.000000      1.000000
 -0.250000 -0.000000 -0.000000      1.000000
  0.000000  0.250000 -0.000000      1.000000
  0.250000  0.250000  0.000000      1.000000
  0.500000  0.250000  0.000000      1.000000
 -0.250000  0.250000 -0.000000      1.000000
  0.000000  0.500000 -0.000000      1.000000
  0.250000  0.500000  0.000000      1.000000
  0.500000  0.500000  0.000000      1.000000
 -0.250000  0.500000 -0.000000      1.000000
 -0.000000 -0.250000  0.000000      1.000000
  0.250000 -0.250000  0.000000      1.000000
  0.500000 -0.250000  0.000000      1.000000
 -0.250000 -0.250000 -0.000000      1.000000
  0.000000  0.000000  0.250000      1.000000
  0.250000 -0.000000  0.250000      1.000000
  0.500000 -0.000000  0.250000      1.000000
 -0.250000 -0.000000  0.250000      1.000000
 -0.000000  0.250000  0.250000      1.000000
  0.250000  0.250000  0.250000      1.000000
  0.500000  0.250000  0.250000      1.000000
 -0.250000  0.250000  0.250000      1.000000
 -0.000000  0.500000  0.250000      1.000000
  0.250000  0.500000  0.250000      1.000000
  0.500000  0.500000  0.250000      1.000000
 -0.250000  0.500000  0.250000      1.000000
  0.000000 -0.250000  0.250000      1.000000
  0.250000 -0.250000  0.250000      1.000000
  0.500000 -0.250000  0.250000      1.000000
 -0.250000 -0.250000  0.250000      1.000000
  0.000000  0.000000  0.500000      1.000000
  0.250000  0.000000  0.500000      1.000000
  0.500000 -0.000000  0.500000      1.000000
 -0.250000  0.000000  0.500000      1.000000
 -0.000000  0.250000  0.500000      1.000000
  0.250000  0.250000  0.500000      1.000000
  0.500000  0.250000  0.500000      1.000000
 -0.250000  0.250000  0.500000      1.000000
 -0.000000  0.500000  0.500000      1.000000
  0.250000  0.500000  0.500000      1.000000
  0.500000  0.500000  0.500000      1.000000
 -0.250000  0.500000  0.500000      1.000000
  0.000000 -0.250000  0.500000      1.000000
  0.250000 -0.250000  0.500000      1.000000
  0.500000 -0.250000  0.500000      1.000000
 -0.250000 -0.250000  0.500000      1.000000
  0.000000  0.000000 -0.250000      1.000000
  0.250000  0.000000 -0.250000      1.000000
  0.500000  0.000000 -0.250000      1.000000
 -0.250000  0.000000 -0.250000      1.000000
  0.000000  0.250000 -0.250000      1.000000
  0.250000  0.250000 -0.250000      1.000000
  0.500000  0.250000 -0.250000      1.000000
 -0.250000  0.250000 -0.250000      1.000000
  0.000000  0.500000 -0.250000      1.000000
  0.250000  0.500000 -0.250000      1.000000
  0.500000  0.500000 -0.250000      1.000000
 -0.250000  0.500000 -0.250000      1.000000
  0.000000 -0.250000 -0.250000      1.000000
  0.250000 -0.250000 -0.250000      1.000000
  0.500000 -0.250000 -0.250000      1.000000
 -0.250000 -0.250000 -0.250000      1.000000
 
 Following cartesian coordinates:
            Coordinates               Weight
  0.000000  0.000000  0.000000      1.000000
  0.057573 -0.033240 -0.023504      1.000000
  0.115145 -0.066479 -0.047008      1.000000
 -0.057573  0.033240  0.023504      1.000000
  0.000000  0.066479 -0.023504      1.000000
  0.057573  0.033240 -0.047008      1.000000
  0.115145  0.000000 -0.070512      1.000000
 -0.057573  0.099719  0.000000      1.000000
  0.000000  0.132958 -0.047008      1.000000
  0.057573  0.099719 -0.070512      1.000000
  0.115145  0.066479 -0.094016      1.000000
 -0.057573  0.166198 -0.023504      1.000000
 -0.000000 -0.066479  0.023504      1.000000
  0.057573 -0.099719 -0.000000      1.000000
  0.115145 -0.132958 -0.023504      1.000000
 -0.057573 -0.033240  0.047008      1.000000
 -0.000000  0.000000  0.070512      1.000000
  0.057573 -0.033240  0.047008      1.000000
  0.115145 -0.066479  0.023504      1.000000
 -0.057573  0.033240  0.094016      1.000000
 -0.000000  0.066479  0.047008      1.000000
  0.057573  0.033240  0.023504      1.000000
  0.115145  0.000000 -0.000000      1.000000
 -0.057573  0.099719  0.070512      1.000000
 -0.000000  0.132958  0.023504      1.000000
  0.057573  0.099719  0.000000      1.000000
  0.115145  0.066479 -0.023504      1.000000
 -0.057573  0.166198  0.047008      1.000000
 -0.000000 -0.066479  0.094016      1.000000
  0.057573 -0.099719  0.070512      1.000000
  0.115145 -0.132958  0.047008      1.000000
 -0.057573 -0.033240  0.117520      1.000000
 -0.000000  0.000000  0.141023      1.000000
  0.057573 -0.033240  0.117520      1.000000
  0.115145 -0.066479  0.094016      1.000000
 -0.057573  0.033240  0.164527      1.000000
 -0.000000  0.066479  0.117520      1.000000
  0.057573  0.033240  0.094016      1.000000
  0.115145  0.000000  0.070512      1.000000
 -0.057573  0.099719  0.141023      1.000000
 -0.000000  0.132958  0.094016      1.000000
  0.057573  0.099719  0.070512      1.000000
  0.115145  0.066479  0.047008      1.000000
 -0.057573  0.166198  0.117520      1.000000
 -0.000000 -0.066479  0.164527      1.000000
  0.057573 -0.099719  0.141023      1.000000
  0.115145 -0.132958  0.117520      1.000000
 -0.057573 -0.033240  0.188031      1.000000
  0.000000 -0.000000 -0.070512      1.000000
  0.057573 -0.033240 -0.094016      1.000000
  0.115145 -0.066479 -0.117520      1.000000
 -0.057573  0.033240 -0.047008      1.000000
  0.000000  0.066479 -0.094016      1.000000
  0.057573  0.033240 -0.117520      1.000000
  0.115145 -0.000000 -0.141023      1.000000
 -0.057573  0.099719 -0.070512      1.000000
  0.000000  0.132958 -0.117520      1.000000
  0.057573  0.099719 -0.141023      1.000000
  0.115145  0.066479 -0.164527      1.000000
 -0.057573  0.166198 -0.094016      1.000000
  0.000000 -0.066479 -0.047008      1.000000
  0.057573 -0.099719 -0.070512      1.000000
  0.115145 -0.132958 -0.094016      1.000000
 -0.057573 -0.033240 -0.023504      1.000000
 
 
 Subroutine IBZKPT_HF returns following result:
 ==============================================
 
 Found     64 k-points in 1st BZ
 the following     64 k-points will be used (e.g. in the exchange kernel)
 Following reciprocal coordinates:   # in IRBZ
  0.000000  0.000000  0.000000    0.01562500   1 t-inv F
  0.250000  0.000000  0.000000    0.01562500   2 t-inv F
  0.500000  0.000000  0.000000    0.01562500   3 t-inv F
 -0.250000 -0.000000 -0.000000    0.01562500   4 t-inv F
  0.000000  0.250000 -0.000000    0.01562500   5 t-inv F
  0.250000  0.250000  0.000000    0.01562500   6 t-inv F
  0.500000  0.250000  0.000000    0.01562500   7 t-inv F
 -0.250000  0.250000 -0.000000    0.01562500   8 t-inv F
  0.000000  0.500000 -0.000000    0.01562500   9 t-inv F
  0.250000  0.500000  0.000000    0.01562500  10 t-inv F
  0.500000  0.500000  0.000000    0.01562500  11 t-inv F
 -0.250000  0.500000 -0.000000    0.01562500  12 t-inv F
 -0.000000 -0.250000  0.000000    0.01562500  13 t-inv F
  0.250000 -0.250000  0.000000    0.01562500  14 t-inv F
  0.500000 -0.250000  0.000000    0.01562500  15 t-inv F
 -0.250000 -0.250000 -0.000000    0.01562500  16 t-inv F
  0.000000  0.000000  0.250000    0.01562500  17 t-inv F
  0.250000 -0.000000  0.250000    0.01562500  18 t-inv F
  0.500000 -0.000000  0.250000    0.01562500  19 t-inv F
 -0.250000 -0.000000  0.250000    0.01562500  20 t-inv F
 -0.000000  0.250000  0.250000    0.01562500  21 t-inv F
  0.250000  0.250000  0.250000    0.01562500  22 t-inv F
  0.500000  0.250000  0.250000    0.01562500  23 t-inv F
 -0.250000  0.250000  0.250000    0.01562500  24 t-inv F
 -0.000000  0.500000  0.250000    0.01562500  25 t-inv F
  0.250000  0.500000  0.250000    0.01562500  26 t-inv F
  0.500000  0.500000  0.250000    0.01562500  27 t-inv F
 -0.250000  0.500000  0.250000    0.01562500  28 t-inv F
  0.000000 -0.250000  0.250000    0.01562500  29 t-inv F
  0.250000 -0.250000  0.250000    0.01562500  30 t-inv F
  0.500000 -0.250000  0.250000    0.01562500  31 t-inv F
 -0.250000 -0.250000  0.250000    0.01562500  32 t-inv F
  0.000000  0.000000  0.500000    0.01562500  33 t-inv F
  0.250000  0.000000  0.500000    0.01562500  34 t-inv F
  0.500000 -0.000000  0.500000    0.01562500  35 t-inv F
 -0.250000  0.000000  0.500000    0.01562500  36 t-inv F
 -0.000000  0.250000  0.500000    0.01562500  37 t-inv F
  0.250000  0.250000  0.500000    0.01562500  38 t-inv F
  0.500000  0.250000  0.500000    0.01562500  39 t-inv F
 -0.250000  0.250000  0.500000    0.01562500  40 t-inv F
 -0.000000  0.500000  0.500000    0.01562500  41 t-inv F
  0.250000  0.500000  0.500000    0.01562500  42 t-inv F
  0.500000  0.500000  0.500000    0.01562500  43 t-inv F
 -0.250000  0.500000  0.500000    0.01562500  44 t-inv F
  0.000000 -0.250000  0.500000    0.01562500  45 t-inv F
  0.250000 -0.250000  0.500000    0.01562500  46 t-inv F
  0.500000 -0.250000  0.500000    0.01562500  47 t-inv F
 -0.250000 -0.250000  0.500000    0.01562500  48 t-inv F
  0.000000  0.000000 -0.250000    0.01562500  49 t-inv F
  0.250000  0.000000 -0.250000    0.01562500  50 t-inv F
  0.500000  0.000000 -0.250000    0.01562500  51 t-inv F
 -0.250000  0.000000 -0.250000    0.01562500  52 t-inv F
  0.000000  0.250000 -0.250000    0.01562500  53 t-inv F
  0.250000  0.250000 -0.250000    0.01562500  54 t-inv F
  0.500000  0.250000 -0.250000    0.01562500  55 t-inv F
 -0.250000  0.250000 -0.250000    0.01562500  56 t-inv F
  0.000000  0.500000 -0.250000    0.01562500  57 t-inv F
  0.250000  0.500000 -0.250000    0.01562500  58 t-inv F
  0.500000  0.500000 -0.250000    0.01562500  59 t-inv F
 -0.250000  0.500000 -0.250000    0.01562500  60 t-inv F
  0.000000 -0.250000 -0.250000    0.01562500  61 t-inv F
  0.250000 -0.250000 -0.250000    0.01562500  62 t-inv F
  0.500000 -0.250000 -0.250000    0.01562500  63 t-inv F
 -0.250000 -0.250000 -0.250000    0.01562500  64 t-inv F

 ----------------------------------------------------------------------------- 
|                                                                             |
|           W    W    AA    RRRRR   N    N  II  N    N   GGGG   !!!           |
|           W    W   A  A   R    R  NN   N  II  NN   N  G    G  !!!           |
|           W    W  A    A  R    R  N N  N  II  N N  N  G       !!!           |
|           W WW W  AAAAAA  RRRRR   N  N N  II  N  N N  G  GGG   !            |
|           WW  WW  A    A  R   R   N   NN  II  N   NN  G    G                |
|           W    W  A    A  R    R  N    N  II  N    N   GGGG   !!!           |
|                                                                             |
|      The number of bands has been changed from the values supplied          |
|      in the INCAR file. This is a result of running the parallel version.   |
|      The orbitals not found in the WAVECAR file will be initialized with    |
|      random numbers, which is usually adequate. For correlated              |
|      calculations, however, you should redo the groundstate calculation.    |
|      I found NBANDS    =       96  now  NBANDS  =     100                   |
|                                                                             |
 ----------------------------------------------------------------------------- 



--------------------------------------------------------------------------------------------------------




 Dimension of arrays:
   k-points           NKPTS =     64   k-points in BZ     NKDIM =     64   number of bands    NBANDS=    100
   number of dos      NEDOS =    301   number of ions     NIONS =      1
   non local maximal  LDIM  =      6   non local SUM 2l+1 LMDIM =     18
   total plane-waves  NPLWV =  21952
   max r-space proj   IRMAX =      1   max aug-charges    IRDMAX= 182324
   dimension x,y,z NGX =    28 NGY =   28 NGZ =   28
   dimension x,y,z NGXF=    56 NGYF=   56 NGZF=   56
   support grid    NGXF=   112 NGYF=  112 NGZF=  112
   ions per type =               1
   NGX,Y,Z   is equivalent  to a cutoff of  10.72, 10.72, 10.72 a.u.
   NGXF,Y,Z  is equivalent  to a cutoff of  21.44, 21.44, 21.44 a.u.

 SYSTEM =  Og_FCC                                  
 POSCAR =  Og_FCC                                  

 Startparameter for this run:
   NWRITE =      1    write-flag & timer
   PREC   = accura    normal or accurate (medium, high low for compatibility)
   ISTART =      1    job   : 0-new  1-cont  2-samecut
   ICHARG =      0    charge: 1-file 2-atom 10-const
   ISPIN  =      1    spin polarized calculation?
   LNONCOLLINEAR =      T non collinear calculations
   LSORBIT =      T    spin-orbit coupling
   INIWAV =      1    electr: 0-lowe 1-rand  2-diag
   LASPH  =      F    aspherical Exc in radial PAW
   METAGGA=      F    non-selfconsistent MetaGGA calc.

 Electronic Relaxation 1
   ENCUT  =  300.0 eV  22.05 Ry    4.70 a.u.   6.13  6.13  6.13*2*pi/ulx,y,z
   ENINI  =  300.0     initial cutoff
   ENAUG  =  361.0 eV  augmentation charge cutoff
   NELM   =      1;   NELMIN=  2; NELMDL=  0     # of ELM steps 
   EDIFF  = 0.1E-07   stopping-criterion for ELM
   LREAL  =      F    real-space projection
   NLSPLINE    = F    spline interpolate recip. space projectors
   LCOMPAT=      F    compatible to vasp.4.4
   GGA_COMPAT  = F    GGA compatible to vasp.4.4-vasp.4.6
   LMAXPAW     = -100 max onsite density
   LMAXMIX     =    2 max onsite mixed and CHGCAR
   VOSKOWN=      0    Vosko Wilk Nusair interpolation
   ROPT   =    0.00000
 Ionic relaxation
   EDIFFG = 0.1E-04   stopping-criterion for IOM
   NSW    =      1    number of steps for IOM
   NBLOCK =      1;   KBLOCK =      1    inner block; outer block 
   IBRION =     -1    ionic relax: 0-MD 1-quasi-New 2-CG
   NFREE  =      5    steps in history (QN), initial steepest desc. (CG)
   ISIF   =      3    stress and relaxation
   IWAVPR =     10    prediction:  0-non 1-charg 2-wave 3-comb
   ISYM   =      0    0-nonsym 1-usesym 2-fastsym
   LCORR  =      T    Harris-Foulkes like correction to forces

   POTIM  = 0.1000    time-step for ionic-motion
   TEIN   =    0.0    initial temperature
   TEBEG  =    0.0;   TEEND  =   0.0 temperature during run
   SMASS  =  -3.00    Nose mass-parameter (am)
   estimated Nose-frequenzy (Omega)   =  0.10E-29 period in steps =****** mass=  -0.431E-27a.u.
   SCALEE = 1.0000    scale energy and forces
   NPACO  =    256;   APACO  = 16.0  distance and # of slots for P.C.
   PSTRESS=    0.0 pullay stress

  Mass of Ions in am
   POMASS =   0.01
  Ionic Valenz
   ZVAL   =  18.00
  Atomic Wigner-Seitz radii
   RWIGS  =  -1.00
  virtual crystal weights 
   VCA    =   1.00
   NELECT =      18.0000    total number of electrons
   NUPDOWN=      -1.0000    fix difference up-down

 DOS related values:
   EMIN   =  10.00;   EMAX   =-10.00  energy-range for DOS
   EFERMI =   0.00
   ISMEAR =     0;   SIGMA  =   0.00  broadening in eV -4-tet -1-fermi 0-gaus

 Electronic relaxation 2 (details)
   IALGO  =     38    algorithm
   LDIAG  =      T    sub-space diagonalisation (order eigenvalues)
   LSUBROT=      F    optimize rotation matrix (better conditioning)
   TURBO    =      0    0=normal 1=particle mesh
   IRESTART =      0    0=no restart 2=restart with 2 vectors
   NREBOOT  =      0    no. of reboots
   NMIN     =      0    reboot dimension
   EREF     =   0.00    reference energy to select bands
   IMIX   =      1    mixing-type and parameters
     AMIX     =   0.40;   BMIX     =  1.00
     AMIX_MAG =   1.60;   BMIX_MAG =  1.00
     AMIN     =   0.10
     WC   =   100.;   INIMIX=   1;  MIXPRE=   1;  MAXMIX=  50

 Intra band minimization:
   WEIMIN = 0.0000     energy-eigenvalue tresh-hold
   EBREAK =  0.25E-10  absolut break condition
   DEPER  =   0.30     relativ break condition  

   TIME   =   0.40     timestep for ELM

  volume/ion in A,a.u.               =      57.90       390.71
  Fermi-wavevector in a.u.,A,eV,Ry     =   1.109038  2.095777 16.734680  1.229964
  Thomas-Fermi vector in A             =   2.245572
 
 Write flags
   LWAVE        =      T    write WAVECAR
   LDOWNSAMPLE  =      F    k-point downsampling of WAVECAR
   LCHARG       =      F    write CHGCAR
   LVTOT        =      F    write LOCPOT, total local potential
   LVHAR        =      F    write LOCPOT, Hartree potential only
   LELF         =      F    write electronic localiz. function (ELF)
   LORBIT       =      0    0 simple, 1 ext, 2 COOP (PROOUT), +10 PAW based schemes


 Dipole corrections
   LMONO  =      F    monopole corrections only (constant potential shift)
   LDIPOL =      F    correct potential (dipole corrections)
   IDIPOL =      0    1-x, 2-y, 3-z, 4-all directions 
   EPSILON=  1.0000000 bulk dielectric constant

 Exchange correlation treatment:
   GGA     =    PE    GGA type
   LEXCH   =     8    internal setting for exchange type
   VOSKOWN=      0    Vosko Wilk Nusair interpolation
   EXXOEP  =     0    0=HF, 1=EXX-LHF (local Hartree Fock) 2=EXX OEP
   LHFCALC =     T    Hartree Fock is set to
   LSYMGRAD=     F    symmetrize gradient (conserves proper symmetry)
   PRECFOCK=normal    Normal, Fast or Accurate (Low or Medium for compatibility)
   LRHFCALC=     F    long range Hartree Fock
   LRSCOR  =     F    long range correlation only (use DFT for short range part)
   LTHOMAS =     F    Thomas Fermi screening in HF
   LMODELHF=     F    short range full HF, long range fraction AEXX
   ENCUT4O =  -1.0   cutoff for four orbital integrals eV
   LMAXFOCK=     4    L truncation for augmentation on plane wave grid
   LMAXFOCKAE=   4    L truncation for all-electron charge restoration on plane wave grid
   NMAXFOCKAE=   1    number of basis functions for all-electron charge restoration
   LFOCKAEDFT=     F  apply the AE augmentation even for DFT
   NKREDX  =     1    reduce k-point grid by
   NKREDY  =     1    reduce k-point grid by
   NKREDZ  =     1    reduce k-point grid by
   SHIFTRED=     F    shift reduced grid of Gamma
   HFKIDENT=     F    idential grid for each k-point
   ODDONLY =     F    use only odd q-grid points
   EVENONLY=     F    use only even q-grid points
   HFALPHA =   -1.0000 decay constant for conv. correction
   MCALPHA =    0.0000 extent of test-charge in conv. correction in multipole expansion
   AEXX    =    1.0000 exact exchange contribution
   HFSCREEN=    0.0000 screening length (either q_TF or 0.3 A-1)
   HFSCREENC=   0.0000 screening length for correlation (either q_TF or 0.3 A-1)
   HFRCUT  =    0.0000 spherical cutoff for potential kernel
   ALDAX   =    0.0000 LDA exchange part
   AGGAX   =    0.0000 GGA exchange part
   ALDAC   =    0.0000 LDA correlation
   AGGAC   =    0.0000 GGA correlation
   ENCUTFOCK=  -1.0 apply spherical cutoff to Coloumb kernel
   NBANDSGWLOW=     1    first orbital included in HF term
   NBLOCK_FOCK=    64    blocking factor in FOCK_ACC
 Linear response parameters
   LEPSILON=     F    determine dielectric tensor
   LRPA    =     F    only Hartree local field effects (RPA)
   LNABLA  =     F    use nabla operator in PAW spheres
   LVEL    =     F    velocity operator in full k-point grid
   LINTERFAST=   F  fast interpolation
   KINTER  =     0    interpolate to denser k-point grid
   CSHIFT  =0.1000    complex shift for real part using Kramers Kronig
   OMEGAMAX=  -1.0    maximum frequency
   DEG_THRESHOLD= 0.2000000E-02 threshold for treating states as degnerate
   RTIME   =   -0.100 relaxation time in fs
  (WPLASMAI=    0.000 imaginary part of plasma frequency in eV, 0.658/RTIME)
   DFIELD  = 0.0000000 0.0000000 0.0000000 field for delta impulse in time
 
 Orbital magnetization related:
   ORBITALMAG=     F  switch on orbital magnetization
   LCHIMAG   =     F  perturbation theory with respect to B field
   DQ        =  0.001000  dq finite difference perturbation B field
   LLRAUG    =     F  two centre corrections for induced B field

 Response functions by sum over occupied states:
   ALGO    =QPGW       execute GW part
   LFXC    =     F    include DFT xc kernel in TD-HF and W
   LADDER  =     F    particle hole ladder diagrams for BSE/TD-HF and W (Nano-quanta)
   LRPAFORCE=     F   calculate RPA forces
   LHARTREE=     T    include Hartree terms (bubbles-RPA) in BSE/TD-HF
   IBSE    =     0    BSE modus: 0 exact, 1 time-evolution (store matrix), 10 time-evolution (implicit)
   KPOINT  =    -1   0   0   0    k-point index at which BSE equation is solved (and G at which response is eval.)
   LTRIPLET=     F    triplet instead of singlet excitation (BSE only)
   LRSRPA  =     F    range separated RPA (total - short) in ACFDT
   LTCTE   =     F    use test-charge test-electron dielectric function
   LTETE   =     F    use test-electron test-electron dielectric function
   LFXCEPS =     F    determine f_xc=epsilon-1/Xi Sharma and Gross kernel
   LFXHEG  =     F    model exchange using f_x(G,k_F) from free electron gas
   NATURALO=     2    0 natural orbitals, 1 only virtual, 2 only occupied-virtual rotation
   L2ORDER =     F    2nd order terms only
   LMP2LT   =     F    use LT MP2
   LUSEW   =     F    use screened W from WXXXX.tmp files instead of (screened) HF kernel
   ENCUTGW = 200.0    cutoff for response function in eV
   ENCUTGWSOFT = 200.0 soft cutoff for Coulomb kernel in GW response function in eV
   ENCUTLF =  -1.0    cutoff for local field effects
   LMAXMP2 =    -1    maximum L for one center terms
   SCISSOR =   0.0    scissor correction
   NOMEGA  =    50    number of frequencies
   NOMEGAR =    50    number of frequencies along real axis
   NBANDSGW=    -1    number of bands for which selfenergy shift is calculated
   NBANDSGWLOW=     1 lowest band included in GW (to exclude core correlation)
   NBANDSO =    -1    number of bands for electron-hole treatment (occupied)
   NBANDSV =    -1    number of bands for electron-hole treatment (virtual)
   NELM    =     1    number of iterations in solving QP/BSE equation
   NELMHF  =     1    number of iterations in the inner HF iteration
   DIM     =     3    dimensionality of system (0=0D molecules, 3=3D)
   ANTIRES =     0    antiresonant part (0) no TDA (1) w=0 exact (2) accurate
   OMEGAMAX= -30.0    maximum frequency
   OMEGAMIN= -30.000    minimum frequency
   OMEGATL =-200.0    maximum frequency of tail
   OMEGAGRID=     0    grid type (0 default)
   CSHIFT  =-0.100    complex shift used in evaluation of response functions
   SELFENERGY=   F    calculate selfenergy instead of QP shifts
   LSPECTRAL =   T    use spectral functions                   
   LSPECTRALGW=   F   use spectral functions to calculate int dz G(w-z) W(z) (more accurate)
   LSINGLES  =   F   calculate the singles contribution to the correlation energy
   LFERMIGW  =   F   update Fermi-energy in the Greens function

   ODDONLYGW =   F    avoid all even points for polarizability 
   EVENONLYGW=   F    avoid all odd  points for polarizability 
   NKREDLFX  =   1   NKREDLFY  =   1   NKREDLFZ  =   1

   TELESCOPE =   0   use telescope k-point sampling
   TAUPAR    =   1   number of TAU groups used in imaginary time calculation
   OMEGAPAR  =  -1   number of OMEGA groups used in imaginary frequency calculation



--------------------------------------------------------------------------------------------------------


 Static calculation
 charge density and potential will be updated during run
 non collinear spin polarized calculation
 Variant of blocked Davidson
 Davidson routine will perform the subspace rotation
 perform sub-space diagonalisation
    after iterative eigenvector-optimisation
 Kerker-like  mixing scheme
 using additional bands           91
 reciprocal scheme for non local part
 use partial core corrections
 calculate Harris-corrections to forces 
   (improved forces if not selfconsistent)
 use gradient corrections 
 use of overlap-Matrix (Vanderbilt PP)
 Gauss-broadening in eV      SIGMA  =   0.00


--------------------------------------------------------------------------------------------------------


  energy-cutoff  :      300.00
  volume of cell :       57.90
      direct lattice vectors                 reciprocal lattice vectors
     4.342345876  0.000000000  0.000000000     0.230290269 -0.132958149 -0.094015609
     2.171172938  3.760581840 -0.000000000     0.000000000  0.265916298 -0.094015609
     2.171172938  1.253527280  3.545510561    -0.000000000  0.000000000  0.282046826

  length of vectors
     4.342345876  4.342345876  4.342345876     0.282046826  0.282046826  0.282046826


 
 old parameters found on file WAVECAR:
  energy-cutoff  :      300.00
  volume of cell :       57.90
      direct lattice vectors                 reciprocal lattice vectors
     4.342345876  0.000000000  0.000000000     0.230290269 -0.132958149 -0.094015609
     2.171172938  3.760581840 -0.000000000     0.000000000  0.265916298 -0.094015609
     2.171172938  1.253527280  3.545510561    -0.000000000  0.000000000  0.282046826

  length of vectors

 
 k-points in units of 2pi/SCALE and weight: k-points                                
   0.00000000  0.00000000  0.00000000       0.016
   0.05757257 -0.03323954 -0.02350390       0.016
   0.11514513 -0.06647907 -0.04700780       0.016
  -0.05757257  0.03323954  0.02350390       0.016
   0.00000000  0.06647907 -0.02350390       0.016
   0.05757257  0.03323954 -0.04700780       0.016
   0.11514513  0.00000000 -0.07051171       0.016
  -0.05757257  0.09971861  0.00000000       0.016
   0.00000000  0.13295815 -0.04700780       0.016
   0.05757257  0.09971861 -0.07051171       0.016
   0.11514513  0.06647907 -0.09401561       0.016
  -0.05757257  0.16619769 -0.02350390       0.016
  -0.00000000 -0.06647907  0.02350390       0.016
   0.05757257 -0.09971861 -0.00000000       0.016
   0.11514513 -0.13295815 -0.02350390       0.016
  -0.05757257 -0.03323954  0.04700780       0.016
  -0.00000000  0.00000000  0.07051171       0.016
   0.05757257 -0.03323954  0.04700780       0.016
   0.11514513 -0.06647907  0.02350390       0.016
  -0.05757257  0.03323954  0.09401561       0.016
  -0.00000000  0.06647907  0.04700780       0.016
   0.05757257  0.03323954  0.02350390       0.016
   0.11514513  0.00000000 -0.00000000       0.016
  -0.05757257  0.09971861  0.07051171       0.016
  -0.00000000  0.13295815  0.02350390       0.016
   0.05757257  0.09971861  0.00000000       0.016
   0.11514513  0.06647907 -0.02350390       0.016
  -0.05757257  0.16619769  0.04700780       0.016
  -0.00000000 -0.06647907  0.09401561       0.016
   0.05757257 -0.09971861  0.07051171       0.016
   0.11514513 -0.13295815  0.04700780       0.016
  -0.05757257 -0.03323954  0.11751951       0.016
  -0.00000000  0.00000000  0.14102341       0.016
   0.05757257 -0.03323954  0.11751951       0.016
   0.11514513 -0.06647907  0.09401561       0.016
  -0.05757257  0.03323954  0.16452732       0.016
  -0.00000000  0.06647907  0.11751951       0.016
   0.05757257  0.03323954  0.09401561       0.016
   0.11514513  0.00000000  0.07051171       0.016
  -0.05757257  0.09971861  0.14102341       0.016
  -0.00000000  0.13295815  0.09401561       0.016
   0.05757257  0.09971861  0.07051171       0.016
   0.11514513  0.06647907  0.04700780       0.016
  -0.05757257  0.16619769  0.11751951       0.016
  -0.00000000 -0.06647907  0.16452732       0.016
   0.05757257 -0.09971861  0.14102341       0.016
   0.11514513 -0.13295815  0.11751951       0.016
  -0.05757257 -0.03323954  0.18803122       0.016
   0.00000000 -0.00000000 -0.07051171       0.016
   0.05757257 -0.03323954 -0.09401561       0.016
   0.11514513 -0.06647907 -0.11751951       0.016
  -0.05757257  0.03323954 -0.04700780       0.016
   0.00000000  0.06647907 -0.09401561       0.016
   0.05757257  0.03323954 -0.11751951       0.016
   0.11514513 -0.00000000 -0.14102341       0.016
  -0.05757257  0.09971861 -0.07051171       0.016
   0.00000000  0.13295815 -0.11751951       0.016
   0.05757257  0.09971861 -0.14102341       0.016
   0.11514513  0.06647907 -0.16452732       0.016
  -0.05757257  0.16619769 -0.09401561       0.016
   0.00000000 -0.06647907 -0.04700780       0.016
   0.05757257 -0.09971861 -0.07051171       0.016
   0.11514513 -0.13295815 -0.09401561       0.016
  -0.05757257 -0.03323954 -0.02350390       0.016
 
 k-points in reciprocal lattice and weights: k-points                                
   0.00000000  0.00000000  0.00000000       0.016
   0.25000000  0.00000000  0.00000000       0.016
   0.50000000  0.00000000  0.00000000       0.016
  -0.25000000 -0.00000000 -0.00000000       0.016
   0.00000000  0.25000000 -0.00000000       0.016
   0.25000000  0.25000000  0.00000000       0.016
   0.50000000  0.25000000  0.00000000       0.016
  -0.25000000  0.25000000 -0.00000000       0.016
   0.00000000  0.50000000 -0.00000000       0.016
   0.25000000  0.50000000  0.00000000       0.016
   0.50000000  0.50000000  0.00000000       0.016
  -0.25000000  0.50000000 -0.00000000       0.016
  -0.00000000 -0.25000000  0.00000000       0.016
   0.25000000 -0.25000000  0.00000000       0.016
   0.50000000 -0.25000000  0.00000000       0.016
  -0.25000000 -0.25000000 -0.00000000       0.016
   0.00000000  0.00000000  0.25000000       0.016
   0.25000000 -0.00000000  0.25000000       0.016
   0.50000000 -0.00000000  0.25000000       0.016
  -0.25000000 -0.00000000  0.25000000       0.016
  -0.00000000  0.25000000  0.25000000       0.016
   0.25000000  0.25000000  0.25000000       0.016
   0.50000000  0.25000000  0.25000000       0.016
  -0.25000000  0.25000000  0.25000000       0.016
  -0.00000000  0.50000000  0.25000000       0.016
   0.25000000  0.50000000  0.25000000       0.016
   0.50000000  0.50000000  0.25000000       0.016
  -0.25000000  0.50000000  0.25000000       0.016
   0.00000000 -0.25000000  0.25000000       0.016
   0.25000000 -0.25000000  0.25000000       0.016
   0.50000000 -0.25000000  0.25000000       0.016
  -0.25000000 -0.25000000  0.25000000       0.016
   0.00000000  0.00000000  0.50000000       0.016
   0.25000000  0.00000000  0.50000000       0.016
   0.50000000 -0.00000000  0.50000000       0.016
  -0.25000000  0.00000000  0.50000000       0.016
  -0.00000000  0.25000000  0.50000000       0.016
   0.25000000  0.25000000  0.50000000       0.016
   0.50000000  0.25000000  0.50000000       0.016
  -0.25000000  0.25000000  0.50000000       0.016
  -0.00000000  0.50000000  0.50000000       0.016
   0.25000000  0.50000000  0.50000000       0.016
   0.50000000  0.50000000  0.50000000       0.016
  -0.25000000  0.50000000  0.50000000       0.016
   0.00000000 -0.25000000  0.50000000       0.016
   0.25000000 -0.25000000  0.50000000       0.016
   0.50000000 -0.25000000  0.50000000       0.016
  -0.25000000 -0.25000000  0.50000000       0.016
   0.00000000  0.00000000 -0.25000000       0.016
   0.25000000  0.00000000 -0.25000000       0.016
   0.50000000  0.00000000 -0.25000000       0.016
  -0.25000000  0.00000000 -0.25000000       0.016
   0.00000000  0.25000000 -0.25000000       0.016
   0.25000000  0.25000000 -0.25000000       0.016
   0.50000000  0.25000000 -0.25000000       0.016
  -0.25000000  0.25000000 -0.25000000       0.016
   0.00000000  0.50000000 -0.25000000       0.016
   0.25000000  0.50000000 -0.25000000       0.016
   0.50000000  0.50000000 -0.25000000       0.016
  -0.25000000  0.50000000 -0.25000000       0.016
   0.00000000 -0.25000000 -0.25000000       0.016
   0.25000000 -0.25000000 -0.25000000       0.016
   0.50000000 -0.25000000 -0.25000000       0.016
  -0.25000000 -0.25000000 -0.25000000       0.016
 
 position of ions in fractional coordinates (direct lattice) 
   0.00000000  0.00000000  0.00000000
 
 position of ions in cartesian coordinates  (Angst):
   0.00000000  0.00000000  0.00000000
 
 Euler angles ALPHA=     0.0000000  BETA=     0.0000000

 transformation matrix from SAXIS to cartesian coordinates
 ---------------------------------------------------------
     1.0000000 m_x     0.0000000 m_y     0.0000000 m_z
     0.0000000 m_x     1.0000000 m_y     0.0000000 m_z
     0.0000000 m_x     0.0000000 m_y     1.0000000 m_z

 transformation matrix from cartesian coordinates to SAXIS
 ---------------------------------------------------------
     1.0000000 m_x     0.0000000 m_y     0.0000000 m_z
     0.0000000 m_x     1.0000000 m_y     0.0000000 m_z
     0.0000000 m_x     0.0000000 m_y     1.0000000 m_z




--------------------------------------------------------------------------------------------------------


 k-point  1 :   0.0000 0.0000 0.0000  plane waves:    1402
 k-point  2 :   0.2500 0.0000 0.0000  plane waves:    1358
 k-point  3 :   0.5000 0.0000 0.0000  plane waves:    1400
 k-point  4 :  -0.2500-0.0000-0.0000  plane waves:    1358
 k-point  5 :   0.0000 0.2500-0.0000  plane waves:    1358
 k-point  6 :   0.2500 0.2500 0.0000  plane waves:    1362
 k-point  7 :   0.5000 0.2500 0.0000  plane waves:    1374
 k-point  8 :  -0.2500 0.2500-0.0000  plane waves:    1352
 k-point  9 :   0.0000 0.5000-0.0000  plane waves:    1400
 k-point 10 :   0.2500 0.5000 0.0000  plane waves:    1374
 k-point 11 :   0.5000 0.5000 0.0000  plane waves:    1384
 k-point 12 :  -0.2500 0.5000-0.0000  plane waves:    1374
 k-point 13 :  -0.0000-0.2500 0.0000  plane waves:    1358
 k-point 14 :   0.2500-0.2500 0.0000  plane waves:    1352
 k-point 15 :   0.5000-0.2500 0.0000  plane waves:    1374
 k-point 16 :  -0.2500-0.2500-0.0000  plane waves:    1362
 k-point 17 :   0.0000 0.0000 0.2500  plane waves:    1358
 k-point 18 :   0.2500-0.0000 0.2500  plane waves:    1362
 k-point 19 :   0.5000-0.0000 0.2500  plane waves:    1374
 k-point 20 :  -0.2500-0.0000 0.2500  plane waves:    1352
 k-point 21 :  -0.0000 0.2500 0.2500  plane waves:    1362
 k-point 22 :   0.2500 0.2500 0.2500  plane waves:    1358
 k-point 23 :   0.5000 0.2500 0.2500  plane waves:    1352
 k-point 24 :  -0.2500 0.2500 0.2500  plane waves:    1374
 k-point 25 :  -0.0000 0.5000 0.2500  plane waves:    1374
 k-point 26 :   0.2500 0.5000 0.2500  plane waves:    1352
 k-point 27 :   0.5000 0.5000 0.2500  plane waves:    1374
 k-point 28 :  -0.2500 0.5000 0.2500  plane waves:    1368
 k-point 29 :   0.0000-0.2500 0.2500  plane waves:    1352
 k-point 30 :   0.2500-0.2500 0.2500  plane waves:    1374
 k-point 31 :   0.5000-0.2500 0.2500  plane waves:    1368
 k-point 32 :  -0.2500-0.2500 0.2500  plane waves:    1374
 k-point 33 :   0.0000 0.0000 0.5000  plane waves:    1400
 k-point 34 :   0.2500 0.0000 0.5000  plane waves:    1374
 k-point 35 :   0.5000-0.0000 0.5000  plane waves:    1384
 k-point 36 :  -0.2500 0.0000 0.5000  plane waves:    1374
 k-point 37 :  -0.0000 0.2500 0.5000  plane waves:    1374
 k-point 38 :   0.2500 0.2500 0.5000  plane waves:    1352
 k-point 39 :   0.5000 0.2500 0.5000  plane waves:    1374
 k-point 40 :  -0.2500 0.2500 0.5000  plane waves:    1368
 k-point 41 :  -0.0000 0.5000 0.5000  plane waves:    1384
 k-point 42 :   0.2500 0.5000 0.5000  plane waves:    1374
 k-point 43 :   0.5000 0.5000 0.5000  plane waves:    1400
 k-point 44 :  -0.2500 0.5000 0.5000  plane waves:    1374
 k-point 45 :   0.0000-0.2500 0.5000  plane waves:    1374
 k-point 46 :   0.2500-0.2500 0.5000  plane waves:    1368
 k-point 47 :   0.5000-0.2500 0.5000  plane waves:    1374
 k-point 48 :  -0.2500-0.2500 0.5000  plane waves:    1352
 k-point 49 :   0.0000 0.0000-0.2500  plane waves:    1358
 k-point 50 :   0.2500 0.0000-0.2500  plane waves:    1352
 k-point 51 :   0.5000 0.0000-0.2500  plane waves:    1374
 k-point 52 :  -0.2500 0.0000-0.2500  plane waves:    1362
 k-point 53 :   0.0000 0.2500-0.2500  plane waves:    1352
 k-point 54 :   0.2500 0.2500-0.2500  plane waves:    1374
 k-point 55 :   0.5000 0.2500-0.2500  plane waves:    1368
 k-point 56 :  -0.2500 0.2500-0.2500  plane waves:    1374
 k-point 57 :   0.0000 0.5000-0.2500  plane waves:    1374
 k-point 58 :   0.2500 0.5000-0.2500  plane waves:    1368
 k-point 59 :   0.5000 0.5000-0.2500  plane waves:    1374
 k-point 60 :  -0.2500 0.5000-0.2500  plane waves:    1352
 k-point 61 :   0.0000-0.2500-0.2500  plane waves:    1362
 k-point 62 :   0.2500-0.2500-0.2500  plane waves:    1374
 k-point 63 :   0.5000-0.2500-0.2500  plane waves:    1352
 k-point 64 :  -0.2500-0.2500-0.2500  plane waves:    1358

 maximum and minimum number of plane-waves per node :      1402     1352

 maximum number of plane-waves:      1402
 maximum index in each direction: 
   IXMAX=    6   IYMAX=    6   IZMAX=    6
   IXMIN=   -6   IYMIN=   -6   IZMIN=   -6


 serial   3D FFT for wavefunctions
 parallel 3D FFT for charge:
    minimum data exchange during FFTs selected (reduces bandwidth)


 FFT grid for exact exchange (Hartree Fock) 
  NGX = 20; NGY = 20; NGZ = 20

 
 Radii for the augmentation spheres in the non-local exchange
 for species   1 augmentation radius   1.202 (default was   1.202)
 error exchange integrals (PW-AE in eV) (mean, max) 0.801 3.766 density error[0,qmax] 0.0260
 Maximum index for augmentation-charges in exchange          959
  SETUP_FOCK is finished

 total amount of memory used by VASP MPI-rank0    88711. kBytes
=======================================================================

   base      :      30000. kBytes
   nonl-proj :       6508. kBytes
   fftplans  :      10640. kBytes
   grid      :      11239. kBytes
   one-center:         62. kBytes
   HF        :        129. kBytes
   nonlr-proj:        437. kBytes
   wavefun   :      29696. kBytes
 
     INWAV:  cpu time    0.7936: real time    0.7933
 charge density for first step will be calculated from the start-wavefunctions


--------------------------------------------------------------------------------------------------------


 Maximum index for augmentation-charges        37385 (set IRDMAX)


--------------------------------------------------------------------------------------------------------


 initial charge from wavefunction
    FEWALD:  cpu time    0.0580: real time    0.0580

 The Fermi energy was updated, please check that it is located mid-gap
 values below the HOMO (VB) or above the LUMO (CB) will cause erroneous energies
 E-fermi :   3.1313

 Response functions by sum over occupied states:
 ===============================================
   NOMEGA  =    50    number of frequencies
   NOMEGAR =    50    number of frequencies along real axis
   OMEGAMAX=  33.07   maximum frequency
   OMEGAMIN=   0.28   minimum frequency
   OMEGATL = 183.78   maximum frequency of tail
   CSHIFT  =  0.860   complex shift used in evaluation of response functions


 Energies iw= 
 ============
   0.000   0.000   0.613   0.000   1.225   0.000   1.831   0.000   2.432   0.000
   3.024   0.000   3.607   0.000   4.180   0.000   4.743   0.000   5.297   0.000
   5.840   0.000   6.375   0.000   6.901   0.000   7.421   0.000   7.936   0.000
   8.447   0.000   8.956   0.000   9.465   0.000   9.976   0.000  10.490   0.000
  11.010   0.000  11.539   0.000  12.079   0.000  12.633   0.000  13.205   0.000
  13.797   0.000  14.415   0.000  15.062   0.000  15.745   0.000  16.471   0.000
  17.246   0.000  18.080   0.000  18.985   0.000  19.975   0.000  21.066   0.000
  22.279   0.000  23.644   0.000  25.194   0.000  26.977   0.000  29.056   0.000
  31.517   0.000  34.484   0.000  38.133   0.000  42.737   0.000  48.728   0.000
  56.837   0.000  68.414   0.000  86.250   0.000 117.194   0.000 183.782   0.000
 

IMPORTANT INFORMATION: All symmetrisations will be switched off!
NOSYMM: (Re-)initialisation of all symmetry stuff for point group C_1.

 
 KPOINTS: k-points                                

Automatic generation of k-mesh.
Space group operators:
 irot       det(A)        alpha          n_x          n_y          n_z        tau_x        tau_y        tau_z
    1     1.000000     0.000000     1.000000     0.000000     0.000000     0.000000     0.000000     0.000000
 
 Subroutine IBZKPT returns following result:
 ===========================================
 
 Found     64 irreducible k-points:
 
 Following reciprocal coordinates:
            Coordinates               Weight
  0.000000  0.000000  0.000000      1.000000
  0.250000  0.000000  0.000000      1.000000
  0.500000  0.000000  0.000000      1.000000
 -0.250000 -0.000000 -0.000000      1.000000
  0.000000  0.250000 -0.000000      1.000000
  0.250000  0.250000  0.000000      1.000000
  0.500000  0.250000  0.000000      1.000000
 -0.250000  0.250000 -0.000000      1.000000
  0.000000  0.500000 -0.000000      1.000000
  0.250000  0.500000  0.000000      1.000000
  0.500000  0.500000  0.000000      1.000000
 -0.250000  0.500000 -0.000000      1.000000
 -0.000000 -0.250000  0.000000      1.000000
  0.250000 -0.250000  0.000000      1.000000
  0.500000 -0.250000  0.000000      1.000000
 -0.250000 -0.250000 -0.000000      1.000000
  0.000000  0.000000  0.250000      1.000000
  0.250000 -0.000000  0.250000      1.000000
  0.500000 -0.000000  0.250000      1.000000
 -0.250000 -0.000000  0.250000      1.000000
 -0.000000  0.250000  0.250000      1.000000
  0.250000  0.250000  0.250000      1.000000
  0.500000  0.250000  0.250000      1.000000
 -0.250000  0.250000  0.250000      1.000000
 -0.000000  0.500000  0.250000      1.000000
  0.250000  0.500000  0.250000      1.000000
  0.500000  0.500000  0.250000      1.000000
 -0.250000  0.500000  0.250000      1.000000
  0.000000 -0.250000  0.250000      1.000000
  0.250000 -0.250000  0.250000      1.000000
  0.500000 -0.250000  0.250000      1.000000
 -0.250000 -0.250000  0.250000      1.000000
  0.000000  0.000000  0.500000      1.000000
  0.250000  0.000000  0.500000      1.000000
  0.500000 -0.000000  0.500000      1.000000
 -0.250000  0.000000  0.500000      1.000000
 -0.000000  0.250000  0.500000      1.000000
  0.250000  0.250000  0.500000      1.000000
  0.500000  0.250000  0.500000      1.000000
 -0.250000  0.250000  0.500000      1.000000
 -0.000000  0.500000  0.500000      1.000000
  0.250000  0.500000  0.500000      1.000000
  0.500000  0.500000  0.500000      1.000000
 -0.250000  0.500000  0.500000      1.000000
  0.000000 -0.250000  0.500000      1.000000
  0.250000 -0.250000  0.500000      1.000000
  0.500000 -0.250000  0.500000      1.000000
 -0.250000 -0.250000  0.500000      1.000000
  0.000000  0.000000 -0.250000      1.000000
  0.250000  0.000000 -0.250000      1.000000
  0.500000  0.000000 -0.250000      1.000000
 -0.250000  0.000000 -0.250000      1.000000
  0.000000  0.250000 -0.250000      1.000000
  0.250000  0.250000 -0.250000      1.000000
  0.500000  0.250000 -0.250000      1.000000
 -0.250000  0.250000 -0.250000      1.000000
  0.000000  0.500000 -0.250000      1.000000
  0.250000  0.500000 -0.250000      1.000000
  0.500000  0.500000 -0.250000      1.000000
 -0.250000  0.500000 -0.250000      1.000000
  0.000000 -0.250000 -0.250000      1.000000
  0.250000 -0.250000 -0.250000      1.000000
  0.500000 -0.250000 -0.250000      1.000000
 -0.250000 -0.250000 -0.250000      1.000000
 
 Following cartesian coordinates:
            Coordinates               Weight
  0.000000  0.000000  0.000000      1.000000
  0.057573 -0.033240 -0.023504      1.000000
  0.115145 -0.066479 -0.047008      1.000000
 -0.057573  0.033240  0.023504      1.000000
  0.000000  0.066479 -0.023504      1.000000
  0.057573  0.033240 -0.047008      1.000000
  0.115145  0.000000 -0.070512      1.000000
 -0.057573  0.099719  0.000000      1.000000
  0.000000  0.132958 -0.047008      1.000000
  0.057573  0.099719 -0.070512      1.000000
  0.115145  0.066479 -0.094016      1.000000
 -0.057573  0.166198 -0.023504      1.000000
 -0.000000 -0.066479  0.023504      1.000000
  0.057573 -0.099719 -0.000000      1.000000
  0.115145 -0.132958 -0.023504      1.000000
 -0.057573 -0.033240  0.047008      1.000000
 -0.000000  0.000000  0.070512      1.000000
  0.057573 -0.033240  0.047008      1.000000
  0.115145 -0.066479  0.023504      1.000000
 -0.057573  0.033240  0.094016      1.000000
 -0.000000  0.066479  0.047008      1.000000
  0.057573  0.033240  0.023504      1.000000
  0.115145  0.000000 -0.000000      1.000000
 -0.057573  0.099719  0.070512      1.000000
 -0.000000  0.132958  0.023504      1.000000
  0.057573  0.099719  0.000000      1.000000
  0.115145  0.066479 -0.023504      1.000000
 -0.057573  0.166198  0.047008      1.000000
 -0.000000 -0.066479  0.094016      1.000000
  0.057573 -0.099719  0.070512      1.000000
  0.115145 -0.132958  0.047008      1.000000
 -0.057573 -0.033240  0.117520      1.000000
 -0.000000  0.000000  0.141023      1.000000
  0.057573 -0.033240  0.117520      1.000000
  0.115145 -0.066479  0.094016      1.000000
 -0.057573  0.033240  0.164527      1.000000
 -0.000000  0.066479  0.117520      1.000000
  0.057573  0.033240  0.094016      1.000000
  0.115145  0.000000  0.070512      1.000000
 -0.057573  0.099719  0.141023      1.000000
 -0.000000  0.132958  0.094016      1.000000
  0.057573  0.099719  0.070512      1.000000
  0.115145  0.066479  0.047008      1.000000
 -0.057573  0.166198  0.117520      1.000000
 -0.000000 -0.066479  0.164527      1.000000
  0.057573 -0.099719  0.141023      1.000000
  0.115145 -0.132958  0.117520      1.000000
 -0.057573 -0.033240  0.188031      1.000000
  0.000000 -0.000000 -0.070512      1.000000
  0.057573 -0.033240 -0.094016      1.000000
  0.115145 -0.066479 -0.117520      1.000000
 -0.057573  0.033240 -0.047008      1.000000
  0.000000  0.066479 -0.094016      1.000000
  0.057573  0.033240 -0.117520      1.000000
  0.115145 -0.000000 -0.141023      1.000000
 -0.057573  0.099719 -0.070512      1.000000
  0.000000  0.132958 -0.117520      1.000000
  0.057573  0.099719 -0.141023      1.000000
  0.115145  0.066479 -0.164527      1.000000
 -0.057573  0.166198 -0.094016      1.000000
  0.000000 -0.066479 -0.047008      1.000000
  0.057573 -0.099719 -0.070512      1.000000
  0.115145 -0.132958 -0.094016      1.000000
 -0.057573 -0.033240 -0.023504      1.000000
 
 files read and symmetry switched off, memory is now:
 total amount of memory used by VASP MPI-rank0    88711. kBytes
=======================================================================

   base      :      30000. kBytes
   nonl-proj :       6508. kBytes
   fftplans  :      10640. kBytes
   grid      :      11239. kBytes
   one-center:         62. kBytes
   HF        :        129. kBytes
   nonlr-proj:        437. kBytes
   wavefun   :      29696. kBytes
 
 Basis sets for responsefunctions:
 =================================
 k-point  1 :   0.0000 0.0000 0.0000  plane waves:     678
 k-point  2 :   0.2500 0.0000 0.0000  plane waves:     718
 k-point  3 :   0.5000 0.0000 0.0000  plane waves:     736
 k-point  4 :  -0.2500-0.0000-0.0000  plane waves:     718
 k-point  5 :   0.0000 0.2500-0.0000  plane waves:     718
 k-point  6 :   0.2500 0.2500 0.0000  plane waves:     702
 k-point  7 :   0.5000 0.2500 0.0000  plane waves:     740
 k-point  8 :  -0.2500 0.2500-0.0000  plane waves:     746
 k-point  9 :   0.0000 0.5000-0.0000  plane waves:     736
 k-point 10 :   0.2500 0.5000 0.0000  plane waves:     740
 k-point 11 :   0.5000 0.5000 0.0000  plane waves:     776
 k-point 12 :  -0.2500 0.5000-0.0000  plane waves:     740
 k-point 13 :  -0.0000-0.2500 0.0000  plane waves:     718
 k-point 14 :   0.2500-0.2500 0.0000  plane waves:     746
 k-point 15 :   0.5000-0.2500 0.0000  plane waves:     740
 k-point 16 :  -0.2500-0.2500-0.0000  plane waves:     702
 k-point 17 :   0.0000 0.0000 0.2500  plane waves:     718
 k-point 18 :   0.2500-0.0000 0.2500  plane waves:     702
 k-point 19 :   0.5000-0.0000 0.2500  plane waves:     740
 k-point 20 :  -0.2500-0.0000 0.2500  plane waves:     746
 k-point 21 :  -0.0000 0.2500 0.2500  plane waves:     702
 k-point 22 :   0.2500 0.2500 0.2500  plane waves:     718
 k-point 23 :   0.5000 0.2500 0.2500  plane waves:     746
 k-point 24 :  -0.2500 0.2500 0.2500  plane waves:     740
 k-point 25 :  -0.0000 0.5000 0.2500  plane waves:     740
 k-point 26 :   0.2500 0.5000 0.2500  plane waves:     746
 k-point 27 :   0.5000 0.5000 0.2500  plane waves:     740
 k-point 28 :  -0.2500 0.5000 0.2500  plane waves:     760
 k-point 29 :   0.0000-0.2500 0.2500  plane waves:     746
 k-point 30 :   0.2500-0.2500 0.2500  plane waves:     740
 k-point 31 :   0.5000-0.2500 0.2500  plane waves:     760
 k-point 32 :  -0.2500-0.2500 0.2500  plane waves:     740
 k-point 33 :   0.0000 0.0000 0.5000  plane waves:     736
 k-point 34 :   0.2500 0.0000 0.5000  plane waves:     740
 k-point 35 :   0.5000-0.0000 0.5000  plane waves:     776
 k-point 36 :  -0.2500 0.0000 0.5000  plane waves:     740
 k-point 37 :  -0.0000 0.2500 0.5000  plane waves:     740
 k-point 38 :   0.2500 0.2500 0.5000  plane waves:     746
 k-point 39 :   0.5000 0.2500 0.5000  plane waves:     740
 k-point 40 :  -0.2500 0.2500 0.5000  plane waves:     760
 k-point 41 :  -0.0000 0.5000 0.5000  plane waves:     776
 k-point 42 :   0.2500 0.5000 0.5000  plane waves:     740
 k-point 43 :   0.5000 0.5000 0.5000  plane waves:     736
 k-point 44 :  -0.2500 0.5000 0.5000  plane waves:     740
 k-point 45 :   0.0000-0.2500 0.5000  plane waves:     740
 k-point 46 :   0.2500-0.2500 0.5000  plane waves:     760
 k-point 47 :   0.5000-0.2500 0.5000  plane waves:     740
 k-point 48 :  -0.2500-0.2500 0.5000  plane waves:     746
 k-point 49 :   0.0000 0.0000-0.2500  plane waves:     718
 k-point 50 :   0.2500 0.0000-0.2500  plane waves:     746
 k-point 51 :   0.5000 0.0000-0.2500  plane waves:     740
 k-point 52 :  -0.2500 0.0000-0.2500  plane waves:     702
 k-point 53 :   0.0000 0.2500-0.2500  plane waves:     746
 k-point 54 :   0.2500 0.2500-0.2500  plane waves:     740
 k-point 55 :   0.5000 0.2500-0.2500  plane waves:     760
 k-point 56 :  -0.2500 0.2500-0.2500  plane waves:     740
 k-point 57 :   0.0000 0.5000-0.2500  plane waves:     740
 k-point 58 :   0.2500 0.5000-0.2500  plane waves:     760
 k-point 59 :   0.5000 0.5000-0.2500  plane waves:     740
 k-point 60 :  -0.2500 0.5000-0.2500  plane waves:     746
 k-point 61 :   0.0000-0.2500-0.2500  plane waves:     702
 k-point 62 :   0.2500-0.2500-0.2500  plane waves:     740
 k-point 63 :   0.5000-0.2500-0.2500  plane waves:     746
 k-point 64 :  -0.2500-0.2500-0.2500  plane waves:     718

 maximum and minimum number of plane-waves per node :       776      678

 maximum number of plane-waves:       776
 maximum index in each direction: 
   IXMAX=    5   IYMAX=    5   IZMAX=    5
   IXMIN=   -5   IYMIN=   -5   IZMIN=   -5

 exchange correlation table for  LEXCH =        8
   RHO(1)=    0.500       N(1)  =     2000
   RHO(2)=  100.500       N(2)  =     4000
 shmem allocating  50 responsefunctions rank=   390
 response function shared by NCSHMEM nodes    1
 all allocation done, memory is now:
 total amount of memory used by VASP MPI-rank0   344842. kBytes
=======================================================================

   base      :      30000. kBytes
   nonl-proj :       6508. kBytes
   fftplans  :      10640. kBytes
   grid      :      11239. kBytes
   one-center:         62. kBytes
   HF        :        129. kBytes
   nonlr-proj:        437. kBytes
   wavefun   :      89088. kBytes
   2eintegral:      52428. kBytes
   fockhandle:      10276. kBytes
   response  :     134035. kBytes
 


--------------------------------------------------------------------------------------------------------


NQ=   1    0.0000    0.0000    0.0000, 
       CHI:  cpu time    0.7599: real time    0.7596
   KRAMKRO:  cpu time    0.4492: real time    0.4488
    LFIELD:  cpu time    0.0000: real time    0.0000

 HEAD OF MICROSCOPIC DIELECTRIC TENSOR (INDEPENDENT PARTICLE)
 -------------------------------------
 w=     0.000     0.000
        32.2718   -0.0000      0.0510   -3.4199      0.0437    5.5820
         0.0510    3.4199     32.1626    0.0000     -0.0394   -5.1990
         0.0437   -5.5820     -0.0394    5.1990     32.1834    0.0000

        0.000        32.206     0.000 dielectric  constant
 
 w=     0.613     0.000
        20.0751   18.1870      2.3505   -1.7986     -3.7677    3.0218
        -2.2952    1.8679     20.0160   18.1129      3.5102   -2.8136
         3.8149   -2.9625     -3.5521    2.7602     20.0270   18.1270

        0.613        20.039    18.142 dielectric  constant
 
 w=     1.225     0.000
         4.7117   15.3819      1.9172    0.2097     -3.1358   -0.2704
        -1.9225   -0.1519      4.7172   15.3202      2.9207    0.2528
         3.1313    0.3198     -2.9165   -0.2967      4.7161   15.3318

        1.225         4.715    15.345 dielectric  constant
 
 w=     1.831     0.000
         1.8087    8.2429      0.9210    0.6136     -1.5257   -0.9668
        -0.9390   -0.5856      1.8279    8.2130      1.4208    0.9009
         1.5103    0.9907     -1.4071   -0.9221      1.8243    8.2186

        1.831         1.820     8.225 dielectric  constant
 
 w=     2.432     0.000
         2.9175    5.4976      0.4440    0.5036     -0.7433   -0.8052
        -0.4590   -0.4901      2.9334    5.4831      0.6922    0.7501
         0.7305    0.8168     -0.6809   -0.7605      2.9304    5.4858

        2.432         2.927     5.489 dielectric  constant
 
 w=     3.024     0.000
         3.5952    5.3342      0.2402    0.3746     -0.4058   -0.6023
        -0.2513   -0.3673      3.6071    5.3263      0.3781    0.5612
         0.3963    0.6086     -0.3697   -0.5669      3.6048    5.3278

        3.024         3.602     5.329 dielectric  constant
 
 w=     3.607     0.000
         2.9834    5.5785      0.1439    0.2825     -0.2451   -0.4555
        -0.1522   -0.2781      2.9923    5.5738      0.2285    0.4248
         0.2380    0.4593     -0.2221   -0.4281      2.9906    5.5747

        3.607         2.989     5.576 dielectric  constant
 
 w=     4.180     0.000
         2.1993    4.9641      0.0927    0.2195     -0.1593   -0.3547
        -0.0992   -0.2167      2.2062    4.9610      0.1482    0.3309
         0.1537    0.3571     -0.1433   -0.3331      2.2049    4.9616

        4.180         2.203     4.962 dielectric  constant
 
 w=     4.743     0.000
         2.2341    4.2693      0.0628    0.1752     -0.1090   -0.2834
        -0.0680   -0.1732      2.2396    4.2672      0.1012    0.2644
         0.1046    0.2851     -0.0972   -0.2659      2.2385    4.2676

        4.743         2.237     4.268 dielectric  constant
 
 w=     5.297     0.000
         2.5643    4.2593      0.0447    0.1430     -0.0782   -0.2315
        -0.0489   -0.1416      2.5688    4.2578      0.0724    0.2159
         0.0746    0.2328     -0.0692   -0.2170      2.5679    4.2580

        5.297         2.567     4.258 dielectric  constant
 
 w=     5.840     0.000
         2.5107    4.8399      0.0333    0.1195     -0.0587   -0.1936
        -0.0368   -0.1184      2.5145    4.8388      0.0544    0.1805
         0.0557    0.1945     -0.0517   -0.1813      2.5138    4.8390

        5.840         2.513     4.839 dielectric  constant
 
 w=     6.375     0.000
         1.6013    5.3675      0.0252    0.1025     -0.0449   -0.1662
        -0.0282   -0.1016      1.6045    5.3666      0.0416    0.1551
         0.0423    0.1669     -0.0393   -0.1557      1.6039    5.3667

        6.375         1.603     5.367 dielectric  constant
 
 w=     6.901     0.000
         0.5054    4.9795      0.0183    0.0896     -0.0331   -0.1453
        -0.0208   -0.0889      0.5081    4.9788      0.0303    0.1359
         0.0309    0.1459     -0.0284   -0.1364      0.5076    4.9790

        6.901         0.507     4.979 dielectric  constant
 
 w=     7.421     0.000
         0.0468    4.2832      0.0116    0.0787     -0.0219   -0.1278
        -0.0138   -0.0782      0.0492    4.2826      0.0192    0.1195
         0.0200    0.1282     -0.0176   -0.1199      0.0487    4.2827

        7.421         0.048     4.283 dielectric  constant
 
 w=     7.936     0.000
        -0.1567    3.8087      0.0050    0.0674     -0.0108   -0.1095
        -0.0070   -0.0669     -0.1546    3.8082      0.0081    0.1016
         0.0091    0.1098     -0.0067   -0.1019     -0.1550    3.8083

        7.936        -0.155     3.808 dielectric  constant
 
 w=     8.447     0.000
        -0.3163    3.4037      0.0026    0.0535     -0.0066   -0.0872
        -0.0044   -0.0532     -0.3144    3.4033      0.0048    0.0789
         0.0051    0.0875     -0.0035   -0.0791     -0.3147    3.4034

        8.447        -0.315     3.403 dielectric  constant
 
 w=     8.956     0.000
        -0.4493    3.0786      0.0072    0.0449     -0.0135   -0.0733
        -0.0088   -0.0447     -0.4476    3.0783      0.0139    0.0658
         0.0122    0.0735     -0.0128   -0.0661     -0.4479    3.0784

        8.956        -0.448     3.078 dielectric  constant
 
 w=     9.465     0.000
        -0.6269    2.7059      0.0089    0.0433     -0.0160   -0.0705
        -0.0103   -0.0431     -0.6255    2.7057      0.0169    0.0652
         0.0148    0.0707     -0.0159   -0.0655     -0.6258    2.7057

        9.465        -0.626     2.706 dielectric  constant
 
 w=     9.976     0.000
        -0.6562    2.2416      0.0071    0.0411     -0.0129   -0.0669
        -0.0083   -0.0410     -0.6549    2.2414      0.0132    0.0629
         0.0118    0.0670     -0.0122   -0.0631     -0.6552    2.2414

        9.976        -0.655     2.241 dielectric  constant
 
 w=    10.490     0.000
        -0.5250    1.9197      0.0052    0.0380     -0.0098   -0.0618
        -0.0063   -0.0379     -0.5238    1.9195      0.0097    0.0583
         0.0089    0.0619     -0.0088   -0.0584     -0.5240    1.9196

       10.490        -0.524     1.920 dielectric  constant
 
 w=    11.010     0.000
        -0.4688    1.7434      0.0035    0.0350     -0.0070   -0.0568
        -0.0045   -0.0348     -0.4677    1.7432      0.0066    0.0536
         0.0061    0.0570     -0.0058   -0.0537     -0.4679    1.7432

       11.010        -0.468     1.743 dielectric  constant
 
 w=    11.539     0.000
        -0.4957    1.5072      0.0017    0.0317     -0.0039   -0.0515
        -0.0026   -0.0315     -0.4947    1.5070      0.0035    0.0484
         0.0031    0.0516     -0.0028   -0.0486     -0.4949    1.5071

       11.539        -0.495     1.507 dielectric  constant
 
 w=    12.079     0.000
        -0.4397    1.1981      0.0006    0.0277     -0.0020   -0.0449
        -0.0014   -0.0275     -0.4388    1.1980      0.0016    0.0421
         0.0013    0.0451     -0.0009   -0.0422     -0.4390    1.1980

       12.079        -0.439     1.198 dielectric  constant
 
 w=    12.633     0.000
        -0.2769    0.9465      0.0009    0.0241     -0.0024   -0.0392
        -0.0016   -0.0240     -0.2760    0.9464      0.0020    0.0365
         0.0018    0.0393     -0.0014   -0.0366     -0.2762    0.9464

       12.633        -0.276     0.946 dielectric  constant
 
 w=    13.205     0.000
        -0.1011    0.7861      0.0015    0.0218     -0.0033   -0.0355
        -0.0022   -0.0217     -0.1004    0.7860      0.0029    0.0330
         0.0027    0.0356     -0.0024   -0.0331     -0.1005    0.7860

       13.205        -0.101     0.786 dielectric  constant
 
 w=    13.797     0.000
         0.0659    0.6641      0.0016    0.0201     -0.0035   -0.0327
        -0.0023   -0.0200      0.0666    0.6640      0.0032    0.0304
         0.0029    0.0327     -0.0027   -0.0305      0.0665    0.6640

       13.797         0.066     0.664 dielectric  constant
 
 w=    14.415     0.000
         0.2419    0.5922      0.0016    0.0185     -0.0034   -0.0301
        -0.0022   -0.0184      0.2426    0.5922      0.0031    0.0280
         0.0029    0.0302     -0.0026   -0.0281      0.2425    0.5922

       14.415         0.242     0.592 dielectric  constant
 
 w=    15.062     0.000
         0.3900    0.5776      0.0015    0.0170     -0.0031   -0.0277
        -0.0021   -0.0170      0.3906    0.5775      0.0029    0.0258
         0.0027    0.0278     -0.0025   -0.0259      0.3905    0.5775

       15.062         0.390     0.578 dielectric  constant
 
 w=    15.745     0.000
         0.4974    0.5839      0.0014    0.0157     -0.0029   -0.0255
        -0.0019   -0.0156      0.4979    0.5838      0.0027    0.0237
         0.0024    0.0255     -0.0023   -0.0238      0.4978    0.5838

       15.745         0.498     0.584 dielectric  constant
 
 w=    16.471     0.000
         0.5840    0.6057      0.0013    0.0144     -0.0026   -0.0234
        -0.0017   -0.0143      0.5845    0.6057      0.0024    0.0218
         0.0022    0.0234     -0.0021   -0.0218      0.5844    0.6057

       16.471         0.584     0.606 dielectric  constant
 
 w=    17.246     0.000
         0.6206    0.6481      0.0011    0.0132     -0.0023   -0.0214
        -0.0015   -0.0131      0.6211    0.6481      0.0022    0.0200
         0.0020    0.0215     -0.0018   -0.0200      0.6210    0.6481

       17.246         0.621     0.648 dielectric  constant
 
 w=    18.080     0.000
         0.6293    0.6536      0.0010    0.0120     -0.0020   -0.0195
        -0.0013   -0.0120      0.6297    0.6536      0.0019    0.0182
         0.0017    0.0196     -0.0016   -0.0182      0.6296    0.6536

       18.080         0.630     0.654 dielectric  constant
 
 w=    18.985     0.000
         0.6341    0.6782      0.0008    0.0109     -0.0018   -0.0177
        -0.0012   -0.0109      0.6345    0.6782      0.0017    0.0165
         0.0015    0.0178     -0.0014   -0.0165      0.6344    0.6782

       18.985         0.634     0.678 dielectric  constant
 
 w=    19.975     0.000
         0.5638    0.6909      0.0007    0.0099     -0.0016   -0.0160
        -0.0010   -0.0098      0.5641    0.6908      0.0015    0.0149
         0.0013    0.0161     -0.0012   -0.0150      0.5641    0.6908

       19.975         0.564     0.691 dielectric  constant
 
 w=    21.066     0.000
         0.4601    0.5954      0.0006    0.0089     -0.0014   -0.0144
        -0.0009   -0.0088      0.4604    0.5954      0.0013    0.0134
         0.0011    0.0144     -0.0011   -0.0134      0.4603    0.5954

       21.066         0.460     0.595 dielectric  constant
 
 w=    22.279     0.000
         0.4589    0.4027      0.0005    0.0079     -0.0012   -0.0129
        -0.0008   -0.0079      0.4591    0.4027      0.0011    0.0120
         0.0010    0.0129     -0.0009   -0.0120      0.4591    0.4027

       22.279         0.459     0.403 dielectric  constant
 
 w=    23.644     0.000
         0.5788    0.2705      0.0005    0.0070     -0.0010   -0.0113
        -0.0007   -0.0069      0.5790    0.2705      0.0010    0.0105
         0.0008    0.0113     -0.0008   -0.0106      0.5790    0.2705

       23.644         0.579     0.270 dielectric  constant
 
 w=    25.194     0.000
         0.7069    0.2356      0.0005    0.0060     -0.0010   -0.0098
        -0.0007   -0.0060      0.7071    0.2356      0.0010    0.0091
         0.0009    0.0098     -0.0008   -0.0091      0.7070    0.2356

       25.194         0.707     0.236 dielectric  constant
 
 w=    26.977     0.000
         0.7823    0.2551      0.0007    0.0052     -0.0014   -0.0085
        -0.0009   -0.0052      0.7825    0.2551      0.0013    0.0080
         0.0012    0.0086     -0.0011   -0.0080      0.7824    0.2551

       26.977         0.782     0.255 dielectric  constant
 
 w=    29.056     0.000
         0.7933    0.2630      0.0008    0.0049     -0.0015   -0.0080
        -0.0010   -0.0049      0.7934    0.2629      0.0014    0.0075
         0.0014    0.0080     -0.0013   -0.0075      0.7934    0.2630

       29.056         0.793     0.263 dielectric  constant
 
 w=    31.517     0.000
         0.8043    0.2076      0.0003    0.0045     -0.0006   -0.0073
        -0.0004   -0.0045      0.8045    0.2076      0.0006    0.0068
         0.0005    0.0073     -0.0005   -0.0068      0.8045    0.2076

       31.517         0.804     0.208 dielectric  constant
 
 w=    34.484     0.000
         0.8606    0.1553      0.0000    0.0036     -0.0002   -0.0059
        -0.0001   -0.0036      0.8607    0.1553      0.0001    0.0055
         0.0001    0.0059     -0.0001   -0.0055      0.8607    0.1553

       34.484         0.861     0.155 dielectric  constant
 
 w=    38.133     0.000
         0.9413    0.1263     -0.0000    0.0028     -0.0001   -0.0046
        -0.0001   -0.0028      0.9414    0.1263      0.0001    0.0043
         0.0000    0.0046     -0.0000   -0.0043      0.9414    0.1263

       38.133         0.941     0.126 dielectric  constant
 
 w=    42.737     0.000
         1.0393    0.1530      0.0001    0.0022     -0.0002   -0.0036
        -0.0001   -0.0022      1.0394    0.1530      0.0002    0.0033
         0.0001    0.0036     -0.0001   -0.0034      1.0394    0.1530

       42.737         1.039     0.153 dielectric  constant
 
 w=    48.728     0.000
         1.0550    0.2882      0.0000    0.0017     -0.0001   -0.0028
        -0.0001   -0.0017      1.0550    0.2882      0.0001    0.0026
         0.0001    0.0028     -0.0001   -0.0026      1.0550    0.2882

       48.728         1.055     0.288 dielectric  constant
 
 w=    56.837     0.000
         0.9030    0.3567      0.0000    0.0013     -0.0001   -0.0021
        -0.0001   -0.0013      0.9030    0.3567      0.0001    0.0019
         0.0000    0.0021     -0.0000   -0.0019      0.9030    0.3567

       56.837         0.903     0.357 dielectric  constant
 
 w=    68.414     0.000
         0.7863    0.1674      0.0000    0.0009     -0.0000   -0.0014
        -0.0000   -0.0009      0.7863    0.1674      0.0000    0.0013
         0.0000    0.0014     -0.0000   -0.0013      0.7863    0.1674

       68.414         0.786     0.167 dielectric  constant
 
 w=    86.250     0.000
         0.8498    0.0249      0.0000    0.0005     -0.0000   -0.0009
        -0.0000   -0.0005      0.8498    0.0249      0.0000    0.0008
         0.0000    0.0009     -0.0000   -0.0008      0.8498    0.0249

       86.250         0.850     0.025 dielectric  constant
 
 w=   117.194     0.000
         0.9372    0.0016     -0.0000    0.0003     -0.0000   -0.0005
        -0.0000   -0.0003      0.9372    0.0016      0.0000    0.0005
         0.0000    0.0005     -0.0000   -0.0005      0.9372    0.0016

      117.194         0.937     0.002 dielectric  constant
 
 w=   183.782     0.000
         0.9785    0.0002     -0.0000    0.0001     -0.0000   -0.0002
        -0.0000   -0.0001      0.9785    0.0002      0.0000    0.0002
         0.0000    0.0002     -0.0000   -0.0002      0.9785    0.0002

      183.782         0.979     0.000 dielectric  constant
 
  XI_LOCAL:  cpu time    0.1222: real time    0.1221

 1 + v P,  with REDUCIBLE POLARIZABILTY P=P_0 (1 -(v+f) P_0)^-1
 -------------------------------------
 w=     0.000     0.000
        32.2164   -0.0000     -0.0510    3.4199     -0.0437   -5.5820
        -0.0510   -3.4199     32.1362    0.0000      0.0394    5.1990
        -0.0437    5.5820      0.0394   -5.1990     32.1410    0.0000

        0.000        32.165     0.000 dielectric  constant
 
 w=     0.613     0.000
        20.0722   18.1502     -2.3505    1.7986      3.7677   -3.0218
         2.2952   -1.8679     20.0220   18.0958     -3.5102    2.8136
        -3.8149    2.9625      3.5521   -2.7602     20.0303   18.0993

        0.613        20.041    18.115 dielectric  constant
 
 w=     1.225     0.000
         4.7196   15.3779     -1.9172   -0.2097      3.1358    0.2704
         1.9225    0.1519      4.7218   15.3261     -2.9207   -0.2528
        -3.1313   -0.3198      2.9165    0.2967      4.7222   15.3346

        1.225         4.721    15.346 dielectric  constant
 
 w=     1.831     0.000
         1.8062    8.2415     -0.9210   -0.6136      1.5257    0.9668
         0.9390    0.5856      1.8224    8.2160     -1.4208   -0.9009
        -1.5103   -0.9907      1.4071    0.9221      1.8182    8.2196

        1.831         1.816     8.226 dielectric  constant
 
 w=     2.432     0.000
         2.9134    5.4921     -0.4440   -0.5036      0.7433    0.8052
         0.4590    0.4901      2.9273    5.4803     -0.6922   -0.7501
        -0.7305   -0.8168      0.6809    0.7605      2.9233    5.4798

        2.432         2.921     5.484 dielectric  constant
 
 w=     3.024     0.000
         3.5952    5.3264     -0.2402   -0.3746      0.4058    0.6023
         0.2513    0.3673      3.6054    5.3202     -0.3781   -0.5612
        -0.3963   -0.6086      0.3697    0.5669      3.6040    5.3173

        3.024         3.602     5.321 dielectric  constant
 
 w=     3.607     0.000
         2.9869    5.5751     -0.1439   -0.2825      0.2451    0.4555
         0.1522    0.2781      2.9950    5.5712     -0.2285   -0.4248
        -0.2380   -0.4593      0.2221    0.4281      2.9960    5.5689

        3.607         2.993     5.572 dielectric  constant
 
 w=     4.180     0.000
         2.1994    4.9640     -0.0927   -0.2195      0.1593    0.3547
         0.0992    0.2167      2.2064    4.9622     -0.1482   -0.3309
        -0.1537   -0.3571      0.1433    0.3331      2.2077    4.9603

        4.180         2.205     4.962 dielectric  constant
 
 w=     4.743     0.000
         2.2310    4.2674     -0.0628   -0.1752      0.1090    0.2834
         0.0680    0.1732      2.2367    4.2673     -0.1012   -0.2644
        -0.1046   -0.2851      0.0972    0.2659      2.2396    4.2651

        4.743         2.236     4.267 dielectric  constant
 
 w=     5.297     0.000
         2.5609    4.2537     -0.0447   -0.1430      0.0782    0.2315
         0.0489    0.1416      2.5649    4.2554     -0.0724   -0.2159
        -0.0746   -0.2328      0.0692    0.2170      2.5700    4.2549

        5.297         2.565     4.255 dielectric  constant
 
 w=     5.840     0.000
         2.5119    4.8304     -0.0333   -0.1195      0.0587    0.1936
         0.0368    0.1184      2.5119    4.8331     -0.0544   -0.1805
        -0.0557   -0.1945      0.0517    0.1813      2.5179    4.8353

        5.840         2.514     4.833 dielectric  constant
 
 w=     6.375     0.000
         1.6096    5.3630     -0.0252   -0.1025      0.0449    0.1662
         0.0282    0.1016      1.6062    5.3608     -0.0416   -0.1551
        -0.0423   -0.1669      0.0393    0.1557      1.6111    5.3676

        6.375         1.609     5.364 dielectric  constant
 
 w=     6.901     0.000
         0.5091    4.9824     -0.0183   -0.0896      0.0331    0.1453
         0.0208    0.0889      0.5107    4.9756     -0.0303   -0.1359
        -0.0309   -0.1459      0.0284    0.1364      0.5098    4.9844

        6.901         0.510     4.981 dielectric  constant
 
 w=     7.421     0.000
         0.0451    4.2834     -0.0116   -0.0787      0.0219    0.1278
         0.0138    0.0782      0.0519    4.2801     -0.0192   -0.1195
        -0.0200   -0.1282      0.0176    0.1199      0.0467    4.2856

        7.421         0.048     4.283 dielectric  constant
 
 w=     7.936     0.000
        -0.1578    3.8053     -0.0050   -0.0674      0.0108    0.1095
         0.0070    0.0669     -0.1518    3.8073     -0.0081   -0.1016
        -0.0091   -0.1098      0.0067    0.1019     -0.1574    3.8084

        7.936        -0.156     3.807 dielectric  constant
 
 w=     8.447     0.000
        -0.3157    3.3986     -0.0026   -0.0535      0.0066    0.0872
         0.0044    0.0532     -0.3130    3.4026     -0.0048   -0.0789
        -0.0051   -0.0875      0.0035    0.0791     -0.3165    3.4013

        8.447        -0.315     3.401 dielectric  constant
 
 w=     8.956     0.000
        -0.4448    3.0734     -0.0072   -0.0449      0.0135    0.0733
         0.0088    0.0447     -0.4456    3.0768     -0.0139   -0.0658
        -0.0122   -0.0735      0.0128    0.0661     -0.4472    3.0756

        8.956        -0.446     3.075 dielectric  constant
 
 w=     9.465     0.000
        -0.6207    2.7049     -0.0089   -0.0433      0.0160    0.0705
         0.0103    0.0431     -0.6229    2.7053     -0.0169   -0.0652
        -0.0148   -0.0707      0.0159    0.0655     -0.6239    2.7045

        9.465        -0.622     2.705 dielectric  constant
 
 w=     9.976     0.000
        -0.6528    2.2429     -0.0071   -0.0411      0.0129    0.0669
         0.0083    0.0410     -0.6536    2.2412     -0.0132   -0.0629
        -0.0118   -0.0670      0.0122    0.0631     -0.6542    2.2409

        9.976        -0.654     2.242 dielectric  constant
 
 w=    10.490     0.000
        -0.5231    1.9193     -0.0052   -0.0380      0.0098    0.0618
         0.0063    0.0379     -0.5216    1.9181     -0.0097   -0.0583
        -0.0089   -0.0619      0.0088    0.0584     -0.5230    1.9179

       10.490        -0.523     1.918 dielectric  constant
 
 w=    11.010     0.000
        -0.4650    1.7422     -0.0035   -0.0350      0.0070    0.0568
         0.0045    0.0348     -0.4638    1.7434     -0.0066   -0.0536
        -0.0061   -0.0570      0.0058    0.0537     -0.4649    1.7416

       11.010        -0.465     1.742 dielectric  constant
 
 w=    11.539     0.000
        -0.4907    1.5085     -0.0017   -0.0317      0.0039    0.0515
         0.0026    0.0315     -0.4919    1.5097     -0.0035   -0.0484
        -0.0031   -0.0516      0.0028    0.0486     -0.4911    1.5080

       11.539        -0.491     1.509 dielectric  constant
 
 w=    12.079     0.000
        -0.4367    1.2018     -0.0006   -0.0277      0.0020    0.0449
         0.0014    0.0275     -0.4383    1.2008     -0.0016   -0.0421
        -0.0013   -0.0451      0.0009    0.0422     -0.4371    1.2007

       12.079        -0.437     1.201 dielectric  constant
 
 w=    12.633     0.000
        -0.2761    0.9499     -0.0009   -0.0241      0.0024    0.0392
         0.0016    0.0240     -0.2766    0.9480     -0.0020   -0.0365
        -0.0018   -0.0393      0.0014    0.0366     -0.2759    0.9485

       12.633        -0.276     0.949 dielectric  constant
 
 w=    13.205     0.000
        -0.1013    0.7885     -0.0015   -0.0218      0.0033    0.0355
         0.0022    0.0217     -0.1009    0.7867     -0.0029   -0.0330
        -0.0027   -0.0356      0.0024    0.0331     -0.1004    0.7875

       13.205        -0.101     0.788 dielectric  constant
 
 w=    13.797     0.000
         0.0652    0.6657     -0.0016   -0.0201      0.0035    0.0327
         0.0023    0.0200      0.0663    0.6645     -0.0032   -0.0304
        -0.0029   -0.0327      0.0027    0.0305      0.0660    0.6654

       13.797         0.066     0.665 dielectric  constant
 
 w=    14.415     0.000
         0.2411    0.5931     -0.0016   -0.0185      0.0034    0.0301
         0.0022    0.0184      0.2422    0.5924     -0.0031   -0.0280
        -0.0029   -0.0302      0.0026    0.0281      0.2417    0.5929

[...]
     10     -32.6376     -32.7859     -32.7860     -32.8367       0.7454       1.0000
     11     -24.7553     -24.8405     -24.8354     -24.8619       0.7514       1.0000
     12     -24.7552     -24.8402     -24.8351     -24.8617       0.7502       1.0000
     13      -9.7221      -9.7550      -9.7548      -9.7653       0.7568       1.0000
     14      -9.7214      -9.7547      -9.7545      -9.7651       0.7579       1.0000
     15      -0.4475      -0.4632      -0.4629      -0.4673       0.7771       1.0000
     16      -0.4458      -0.4623      -0.4619      -0.4666       0.7770       1.0000
     17       1.3324       1.3231       1.3232       1.3208       0.7939       1.0000
     18       1.3347       1.3244       1.3245       1.3218       0.7939       1.0000
     19       7.7650       7.7791       7.7757       7.7783       0.8038       0.0000
     20       7.7654       7.7793       7.7759       7.7784       0.8038       0.0000
     21       9.0122       9.0298       9.0297       9.0342       0.7970       0.0000
     22       9.0125       9.0300       9.0299       9.0343       0.7968       0.0000
     23      10.6008      10.6218      10.6212      10.6265       0.7929       0.0000
     24      10.6015      10.6222      10.6215      10.6268       0.7928       0.0000
     25      11.9102      11.9321      11.9319      11.9376       0.7919       0.0000
     26      11.9107      11.9324      11.9322      11.9379       0.7919       0.0000
     27      13.1001      13.1252      13.1250      13.1317       0.7890       0.0000
     28      13.1003      13.1253      13.1252      13.1318       0.7890       0.0000
     29      14.7034      14.7309      14.7300      14.7372       0.7877       0.0000
     30      14.7036      14.7310      14.7301      14.7373       0.7878       0.0000
     31      16.0675      16.0948      16.0944      16.1014       0.7929       0.0000
     32      16.0675      16.0949      16.0945      16.1015       0.7928       0.0000
     33      16.4871      16.5141      16.5136      16.5204       0.7966       0.0000
     34      16.4872      16.5143      16.5139      16.5207       0.7965       0.0000
     35      18.8386      18.8643      18.8631      18.8691       0.8035       0.0000
     36      18.8397      18.8653      18.8640      18.8700       0.8035       0.0000
     37      20.1951      20.2283      20.2283      20.2373       0.7864       0.0000
     38      20.1956      20.2288      20.2286      20.2376       0.7863       0.0000
     39      21.7704      21.8056      21.8055      21.8155       0.7782       0.0000
     40      21.7715      21.8068      21.8066      21.8166       0.7780       0.0000
 

 k-point  61 :       0.0000   -0.2500   -0.2500
  band No. DFT-energies  QP-energies  QP-e(diag)   sigma(DFT)    Z            occupation

      1     -40.1332     -40.3118     -40.3110     -40.3783       0.7254       1.0000
      2     -40.1324     -40.3117     -40.3111     -40.3785       0.7260       1.0000
      3     -40.1226     -40.3025     -40.3021     -40.3673       0.7333       1.0000
      4     -40.1210     -40.3024     -40.3022     -40.3677       0.7343       1.0000
      5     -32.6533     -32.8038     -32.8035     -32.8570       0.7375       1.0000
      6     -32.6528     -32.8037     -32.8035     -32.8572       0.7377       1.0000
      7     -32.6448     -32.7925     -32.7925     -32.8438       0.7419       1.0000
      8     -32.6439     -32.7925     -32.7924     -32.8440       0.7421       1.0000
      9     -32.6394     -32.7872     -32.7871     -32.8380       0.7439       1.0000
     10     -32.6389     -32.7871     -32.7872     -32.8382       0.7441       1.0000
     11     -24.8023     -24.8873     -24.8796     -24.9051       0.7519       1.0000
     12     -24.8018     -24.8871     -24.8794     -24.9050       0.7514       1.0000
     13      -9.6091      -9.6416      -9.6418      -9.6522       0.7575       1.0000
     14      -9.6084      -9.6413      -9.6414      -9.6520       0.7580       1.0000
     15       0.1807       0.1682       0.1651       0.1608       0.7861       1.0000
     16       0.1844       0.1702       0.1670       0.1623       0.7863       1.0000
     17       1.7930       1.7852       1.7857       1.7838       0.7976       1.0000
     18       1.7983       1.7880       1.7884       1.7859       0.7976       1.0000
     19       6.8047       6.8154       6.8111       6.8127       0.8085       0.0000
     20       6.8060       6.8161       6.8119       6.8133       0.8083       0.0000
     21       8.8309       8.8492       8.8491       8.8536       0.7997       0.0000
     22       8.8310       8.8493       8.8492       8.8537       0.7998       0.0000
     23      10.1173      10.1377      10.1371      10.1422       0.7931       0.0000
     24      10.1181      10.1381      10.1375      10.1426       0.7931       0.0000
     25      12.3994      12.4232      12.4226      12.4288       0.7896       0.0000
     26      12.4001      12.4237      12.4231      12.4292       0.7896       0.0000
     27      13.5045      13.5290      13.5284      13.5347       0.7915       0.0000
     28      13.5054      13.5296      13.5290      13.5352       0.7916       0.0000
     29      15.5408      15.5684      15.5683      15.5756       0.7918       0.0000
     30      15.5421      15.5694      15.5693      15.5765       0.7917       0.0000
     31      16.2418      16.2708      16.2707      16.2783       0.7917       0.0000
     32      16.2420      16.2709      16.2708      16.2784       0.7917       0.0000
     33      16.3487      16.3769      16.3768      16.3842       0.7920       0.0000
     34      16.3495      16.3774      16.3774      16.3847       0.7921       0.0000
     35      16.4091      16.4374      16.4374      16.4448       0.7919       0.0000
     36      16.4094      16.4378      16.4378      16.4452       0.7918       0.0000
     37      17.1852      17.2091      17.2085      17.2142       0.8035       0.0000
     38      17.1856      17.2098      17.2092      17.2150       0.8035       0.0000
     39      21.3956      21.4257      21.4253      21.4336       0.7802       0.0000
     40      21.3983      21.4281      21.4277      21.4360       0.7802       0.0000
 

 k-point  62 :       0.2500   -0.2500   -0.2500
  band No. DFT-energies  QP-energies  QP-e(diag)   sigma(DFT)    Z            occupation

      1     -40.1325     -40.3141     -40.3130     -40.3809       0.7268       1.0000
      2     -40.1317     -40.3139     -40.3132     -40.3813       0.7272       1.0000
      3     -40.1272     -40.3092     -40.3088     -40.3760       0.7300       1.0000
      4     -40.1261     -40.3089     -40.3090     -40.3761       0.7315       1.0000
      5     -32.6498     -32.7989     -32.7986     -32.8514       0.7383       1.0000
      6     -32.6487     -32.7988     -32.7985     -32.8514       0.7393       1.0000
      7     -32.6430     -32.7928     -32.7923     -32.8441       0.7426       1.0000
      8     -32.6423     -32.7927     -32.7927     -32.8446       0.7434       1.0000
      9     -32.6402     -32.7903     -32.7905     -32.8428       0.7418       1.0000
     10     -32.6401     -32.7901     -32.7905     -32.8427       0.7421       1.0000
     11     -24.7335     -24.8177     -24.8138     -24.8401       0.7530       1.0000
     12     -24.7329     -24.8175     -24.8136     -24.8401       0.7531       1.0000
     13      -9.7723      -9.8057      -9.8054      -9.8162       0.7539       1.0000
     14      -9.7716      -9.8054      -9.8051      -9.8160       0.7545       1.0000
     15      -0.5810      -0.5972      -0.5955      -0.5997       0.7740       1.0000
     16      -0.5784      -0.5958      -0.5940      -0.5986       0.7747       1.0000
     17       1.0463       1.0361       1.0367       1.0341       0.7906       1.0000
     18       1.0493       1.0377       1.0383       1.0354       0.7911       1.0000
     19       7.3493       7.3630       7.3611       7.3639       0.8055       0.0000
     20       7.3496       7.3632       7.3613       7.3641       0.8049       0.0000
     21       8.9223       8.9402       8.9400       8.9445       0.7972       0.0000
     22       8.9223       8.9403       8.9401       8.9446       0.7971       0.0000
     23      10.6217      10.6427      10.6417      10.6469       0.7933       0.0000
     24      10.6221      10.6428      10.6418      10.6470       0.7931       0.0000
     25      12.3624      12.3857      12.3852      12.3912       0.7902       0.0000
     26      12.3626      12.3859      12.3854      12.3915       0.7902       0.0000
     27      14.0818      14.1072      14.1056      14.1118       0.7919       0.0000
     28      14.0831      14.1083      14.1067      14.1129       0.7917       0.0000
     29      15.7816      15.8092      15.8089      15.8161       0.7912       0.0000
     30      15.7823      15.8098      15.8095      15.8167       0.7909       0.0000
     31      16.3377      16.3668      16.3662      16.3738       0.7875       0.0000
     32      16.3382      16.3672      16.3665      16.3742       0.7871       0.0000
     33      17.7114      17.7364      17.7351      17.7408       0.8046       0.0000
     34      17.7124      17.7373      17.7360      17.7417       0.8043       0.0000
     35      18.6310      18.6582      18.6576      18.6643       0.7983       0.0000
     36      18.6360      18.6629      18.6624      18.6690       0.7980       0.0000
     37      20.3469      20.3802      20.3800      20.3889       0.7869       0.0000
     38      20.3493      20.3825      20.3823      20.3912       0.7870       0.0000
     39      20.6893      20.7223      20.7220      20.7309       0.7851       0.0000
     40      20.7000      20.7330      20.7327      20.7417       0.7845       0.0000
 

 k-point  63 :       0.5000   -0.2500   -0.2500
  band No. DFT-energies  QP-energies  QP-e(diag)   sigma(DFT)    Z            occupation

      1     -40.1279     -40.3072     -40.3065     -40.3726       0.7300       1.0000
      2     -40.1270     -40.3070     -40.3064     -40.3725       0.7306       1.0000
      3     -40.1224     -40.3014     -40.3010     -40.3660       0.7334       1.0000
      4     -40.1208     -40.3013     -40.3012     -40.3665       0.7341       1.0000
      5     -32.6454     -32.7940     -32.7935     -32.8452       0.7411       1.0000
      6     -32.6450     -32.7939     -32.7932     -32.8448       0.7416       1.0000
      7     -32.6421     -32.7902     -32.7903     -32.8410       0.7450       1.0000
      8     -32.6411     -32.7901     -32.7907     -32.8417       0.7455       1.0000
      9     -32.6384     -32.7860     -32.7860     -32.8366       0.7447       1.0000
     10     -32.6376     -32.7859     -32.7860     -32.8367       0.7452       1.0000
     11     -24.7555     -24.8405     -24.8353     -24.8618       0.7506       1.0000
     12     -24.7549     -24.8402     -24.8351     -24.8617       0.7508       1.0000
     13      -9.7221      -9.7550      -9.7548      -9.7653       0.7573       1.0000
     14      -9.7214      -9.7547      -9.7545      -9.7651       0.7575       1.0000
     15      -0.4479      -0.4634      -0.4631      -0.4674       0.7768       1.0000
     16      -0.4454      -0.4621      -0.4617      -0.4664       0.7772       1.0000
     17       1.3318       1.3228       1.3229       1.3206       0.7938       1.0000
     18       1.3352       1.3247       1.3248       1.3220       0.7941       1.0000
     19       7.7650       7.7791       7.7757       7.7783       0.8039       0.0000
     20       7.7654       7.7793       7.7759       7.7785       0.8037       0.0000
     21       9.0122       9.0298       9.0297       9.0342       0.7970       0.0000
     22       9.0125       9.0300       9.0299       9.0343       0.7968       0.0000
     23      10.6008      10.6218      10.6212      10.6265       0.7929       0.0000
     24      10.6015      10.6222      10.6216      10.6268       0.7928       0.0000
     25      11.9100      11.9320      11.9318      11.9375       0.7919       0.0000
     26      11.9109      11.9325      11.9323      11.9380       0.7918       0.0000
     27      13.1000      13.1251      13.1249      13.1316       0.7891       0.0000
     28      13.1004      13.1254      13.1252      13.1319       0.7890       0.0000
     29      14.7034      14.7309      14.7300      14.7372       0.7878       0.0000
     30      14.7036      14.7310      14.7301      14.7372       0.7877       0.0000
     31      16.0674      16.0948      16.0943      16.1014       0.7929       0.0000
     32      16.0676      16.0950      16.0945      16.1015       0.7928       0.0000
     33      16.4871      16.5141      16.5137      16.5205       0.7965       0.0000
     34      16.4872      16.5143      16.5139      16.5207       0.7965       0.0000
     35      18.8385      18.8643      18.8631      18.8691       0.8035       0.0000
     36      18.8398      18.8653      18.8641      18.8700       0.8035       0.0000
     37      20.1949      20.2282      20.2281      20.2371       0.7864       0.0000
     38      20.1957      20.2290      20.2288      20.2378       0.7862       0.0000
     39      21.7705      21.8056      21.8055      21.8155       0.7782       0.0000
     40      21.7714      21.8068      21.8066      21.8167       0.7780       0.0000
 

 k-point  64 :      -0.2500   -0.2500   -0.2500
  band No. DFT-energies  QP-energies  QP-e(diag)   sigma(DFT)    Z            occupation

      1     -40.1294     -40.3083     -40.3076     -40.3738       0.7289       1.0000
      2     -40.1289     -40.3083     -40.3075     -40.3739       0.7291       1.0000
      3     -40.1247     -40.3053     -40.3048     -40.3708       0.7319       1.0000
      4     -40.1239     -40.3051     -40.3047     -40.3708       0.7322       1.0000
      5     -32.6480     -32.7963     -32.7961     -32.8482       0.7395       1.0000
      6     -32.6471     -32.7962     -32.7959     -32.8482       0.7402       1.0000
      7     -32.6431     -32.7912     -32.7911     -32.8423       0.7429       1.0000
      8     -32.6427     -32.7911     -32.7910     -32.8424       0.7426       1.0000
      9     -32.6422     -32.7908     -32.7910     -32.8427       0.7417       1.0000
     10     -32.6414     -32.7907     -32.7909     -32.8432       0.7408       1.0000
     11     -24.8232     -24.9091     -24.9004     -24.9261       0.7504       1.0000
     12     -24.8223     -24.9090     -24.9003     -24.9261       0.7514       1.0000
     13      -9.5605      -9.5926      -9.5923      -9.6025       0.7584       1.0000
     14      -9.5598      -9.5923      -9.5920      -9.6023       0.7592       1.0000
     15       0.2716       0.2598       0.2569       0.2529       0.7872       1.0000
     16       0.2751       0.2616       0.2587       0.2543       0.7875       1.0000
     17       2.5006       2.4947       2.4950       2.4936       0.8031       1.0000
     18       2.5065       2.4978       2.4981       2.4960       0.8035       1.0000
     19       5.9365       5.9456       5.9394       5.9401       0.8126       0.0000
     20       5.9374       5.9460       5.9399       5.9405       0.8123       0.0000
     21      10.2260      10.2465      10.2460      10.2513       0.7930       0.0000
     22      10.2268      10.2469      10.2465      10.2516       0.7929       0.0000
     23      11.3628      11.3862      11.3859      11.3921       0.7890       0.0000
     24      11.3631      11.3865      11.3862      11.3923       0.7889       0.0000
     25      11.5623      11.5828      11.5826      11.5878       0.7951       0.0000
     26      11.5624      11.5830      11.5828      11.5880       0.7951       0.0000
     27      12.1971      12.2209      12.2208      12.2272       0.7865       0.0000
     28      12.1973      12.2211      12.2210      12.2274       0.7866       0.0000
     29      13.2932      13.3182      13.3180      13.3246       0.7903       0.0000
     30      13.2935      13.3185      13.3183      13.3249       0.7902       0.0000
     31      13.5382      13.5632      13.5630      13.5696       0.7906       0.0000
     32      13.5396      13.5642      13.5641      13.5706       0.7906       0.0000
     33      16.2866      16.3155      16.3154      16.3229       0.7921       0.0000
     34      16.2867      16.3157      16.3153      16.3228       0.7922       0.0000
     35      18.4364      18.4655      18.4653      18.4728       0.7932       0.0000
     36      18.4371      18.4660      18.4657      18.4732       0.7933       0.0000
     37      18.7731      18.8028      18.8027      18.8104       0.7923       0.0000
     38      18.7733      18.8031      18.8026      18.8103       0.7921       0.0000
     39      21.0711      21.0991      21.0982      21.1055       0.7884       0.0000
     40      21.0729      21.1007      21.0998      21.1071       0.7883       0.0000
 


--------------------------------------------------------------------------------------------------------



IMPORTANT INFORMATION: All symmetrisations will be switched off!
NOSYMM: (Re-)initialisation of all symmetry stuff for point group C_1.

   GW_DIAG:  cpu time    0.4081: real time    0.4087
    GWLOOP:  cpu time  636.7951: real time  636.7887
 writing wavefunctions
    --------------------------------------------
   GWTOTAL:  cpu time  637.2628: real time  637.3657
    4ORBIT:  cpu time    0.0000: real time    0.0000

 Spin-Orbit-Coupling matrix elements

 Ion:    1  E_soc:    -33.0460193
 l=   1
     0.0000000    -5.0939736    -5.0939735
    -5.0939736     0.0000000    -5.0939740
    -5.0939735    -5.0939740     0.0000000
 l=   2
     0.0000000    -0.0827662     0.0000000    -0.0827662    -0.3308850
    -0.0827662     0.0000000    -0.2481637    -0.0828112    -0.0827662
     0.0000000    -0.2481637     0.0000000    -0.2481638     0.0000000
    -0.0827662    -0.0828112    -0.2481638     0.0000000    -0.0827662
    -0.3308850    -0.0827662     0.0000000    -0.0827662     0.0000000
 l=   3
     0.0000000     0.0000000     0.0000000     0.0000000     0.0000000     0.0000000     0.0000000
     0.0000000     0.0000000     0.0000000     0.0000000     0.0000000     0.0000000     0.0000000
     0.0000000     0.0000000     0.0000000     0.0000000     0.0000000     0.0000000     0.0000000
     0.0000000     0.0000000     0.0000000     0.0000000     0.0000000     0.0000000     0.0000000
     0.0000000     0.0000000     0.0000000     0.0000000     0.0000000     0.0000000     0.0000000
     0.0000000     0.0000000     0.0000000     0.0000000     0.0000000     0.0000000     0.0000000
     0.0000000     0.0000000     0.0000000     0.0000000     0.0000000     0.0000000     0.0000000

 total amount of memory used by VASP MPI-rank0    88711. kBytes
=======================================================================

   base      :      30000. kBytes
   nonl-proj :       6508. kBytes
   fftplans  :      10640. kBytes
   grid      :      11239. kBytes
   one-center:         62. kBytes
   HF        :        129. kBytes
   nonlr-proj:        437. kBytes
   wavefun   :      29696. kBytes
   2eintegral:          0. kBytes
   fockhandle:          0. kBytes
   response  :          0. kBytes
   cacher    :          0. kBytes
 
  
  
 General timing and accounting informations for this job:
 ========================================================
  
                  Total CPU time used (sec):      640.851
                            User time (sec):      639.764
                          System time (sec):        1.087
                         Elapsed time (sec):      641.846
  
                   Maximum memory used (kb):      531452.
                   Average memory used (kb):           0.
  
                          Minor page faults:       126584
                          Major page faults:            0
                 Voluntary context switches:        13557
