 vasp.5.4.4.18Apr17-6-g9f103f2a35 (build Nov 03 2018 10:20:46) complex          
  
 executed on             LinuxIFC date 2018.11.14  10:26:21
 running on   40 total cores
 distrk:  each k-point on    5 cores,    8 groups
 distr:  one band on NCORES_PER_BAND=   1 cores,    5 groups


--------------------------------------------------------------------------------------------------------


 INCAR:
 POTCAR:    PAW Og, JanMewes Oct 18               

 ----------------------------------------------------------------------------- 
|                                                                             |
|           W    W    AA    RRRRR   N    N  II  N    N   GGGG   !!!           |
|           W    W   A  A   R    R  NN   N  II  NN   N  G    G  !!!           |
|           W    W  A    A  R    R  N N  N  II  N N  N  G       !!!           |
|           W WW W  AAAAAA  RRRRR   N  N N  II  N  N N  G  GGG   !            |
|           WW  WW  A    A  R   R   N   NN  II  N   NN  G    G                |
|           W    W  A    A  R    R  N    N  II  N    N   GGGG   !!!           |
|                                                                             |
|      For optimal performance we recommend to set                            |
|        NCORE= 4 - approx SQRT( number of cores)                             |
|      NCORE specifies how many cores store one orbital (NPAR=cpu/NCORE).     |
|      This setting can  greatly improve the performance of VASP for DFT.     |
|      The default,   NCORE=1            might be grossly inefficient         |
|      on modern multi-core architectures or massively parallel machines.     |
|      Do your own testing !!!!                                               |
|      Unfortunately you need to use the default for GW and RPA calculations. |
|      (for HF NCORE is supported but not extensively tested yet)             |
|                                                                             |
 ----------------------------------------------------------------------------- 


 ----------------------------------------------------------------------------- 
|                                                                             |
|           W    W    AA    RRRRR   N    N  II  N    N   GGGG   !!!           |
|           W    W   A  A   R    R  NN   N  II  NN   N  G    G  !!!           |
|           W    W  A    A  R    R  N N  N  II  N N  N  G       !!!           |
|           W WW W  AAAAAA  RRRRR   N  N N  II  N  N N  G  GGG   !            |
|           WW  WW  A    A  R   R   N   NN  II  N   NN  G    G                |
|           W    W  A    A  R    R  N    N  II  N    N   GGGG   !!!           |
|                                                                             |
|      You have enabled k-point parallelism (KPAR>1).                         |
|      This developmental code was originally  written by Paul Kent at ORNL,  |
|      and carefully double checked in Vienna.                                |
|      GW as well as linear response parallelism added by Martijn Marsman     |
|      and Georg Kresse.                                                      |
|      Carefully verify results versus KPAR=1.                                |
|      Report problems to Paul Kent and Vienna.                               |
|                                                                             |
 ----------------------------------------------------------------------------- 

 POTCAR:    PAW Og, JanMewes Oct 18               
  local pseudopotential read in
  partial core-charges read in
  partial kinetic energy density read in
  kinetic energy density of atom read in
  atomic valenz-charges read in
  non local Contribution for L=           2  read in
    real space projection operators read in
  non local Contribution for L=           2  read in
    real space projection operators read in
  non local Contribution for L=           0  read in
    real space projection operators read in
  non local Contribution for L=           0  read in
    real space projection operators read in
  non local Contribution for L=           1  read in
    real space projection operators read in
  non local Contribution for L=           1  read in
    real space projection operators read in
    PAW grid and wavefunctions read in
 
   number of l-projection  operators is LMAX  =           6
   number of lm-projection operators is LMMAX =          18
 
  PAW Og, JanMewes Oct 18               :
 energy of atom  1       EATOM=-2640.5573
 kinetic energy error for atom=    0.6524 (will be added to EATOM!!)
 
 
 POSCAR: Og_FCC                                  
  positions in direct lattice
  velocities in cartesian coordinates
 exchange correlation table for  LEXCH =        8
   RHO(1)=    0.500       N(1)  =     2000
   RHO(2)=  100.500       N(2)  =     4000
 


--------------------------------------------------------------------------------------------------------


 ion  position               nearest neighbor table
   1  0.000  0.000  0.000-
 

IMPORTANT INFORMATION: All symmetrisations will be switched off!
NOSYMM: (Re-)initialisation of all symmetry stuff for point group C_1.

 
 
 KPOINTS: k-points                                

Automatic generation of k-mesh.
Space group operators:
 irot       det(A)        alpha          n_x          n_y          n_z        tau_x        tau_y        tau_z
    1     1.000000     0.000000     1.000000     0.000000     0.000000     0.000000     0.000000     0.000000
 
 Subroutine IBZKPT returns following result:
 ===========================================
 
 Found     64 irreducible k-points:
 
 Following reciprocal coordinates:
            Coordinates               Weight
  0.000000  0.000000  0.000000      1.000000
  0.250000  0.000000  0.000000      1.000000
  0.500000  0.000000  0.000000      1.000000
 -0.250000 -0.000000 -0.000000      1.000000
  0.000000  0.250000 -0.000000      1.000000
  0.250000  0.250000  0.000000      1.000000
  0.500000  0.250000  0.000000      1.000000
 -0.250000  0.250000 -0.000000      1.000000
  0.000000  0.500000 -0.000000      1.000000
  0.250000  0.500000  0.000000      1.000000
  0.500000  0.500000  0.000000      1.000000
 -0.250000  0.500000 -0.000000      1.000000
 -0.000000 -0.250000  0.000000      1.000000
  0.250000 -0.250000  0.000000      1.000000
  0.500000 -0.250000  0.000000      1.000000
 -0.250000 -0.250000 -0.000000      1.000000
  0.000000  0.000000  0.250000      1.000000
  0.250000 -0.000000  0.250000      1.000000
  0.500000 -0.000000  0.250000      1.000000
 -0.250000 -0.000000  0.250000      1.000000
 -0.000000  0.250000  0.250000      1.000000
  0.250000  0.250000  0.250000      1.000000
  0.500000  0.250000  0.250000      1.000000
 -0.250000  0.250000  0.250000      1.000000
 -0.000000  0.500000  0.250000      1.000000
  0.250000  0.500000  0.250000      1.000000
  0.500000  0.500000  0.250000      1.000000
 -0.250000  0.500000  0.250000      1.000000
  0.000000 -0.250000  0.250000      1.000000
  0.250000 -0.250000  0.250000      1.000000
  0.500000 -0.250000  0.250000      1.000000
 -0.250000 -0.250000  0.250000      1.000000
  0.000000  0.000000  0.500000      1.000000
  0.250000  0.000000  0.500000      1.000000
  0.500000 -0.000000  0.500000      1.000000
 -0.250000  0.000000  0.500000      1.000000
 -0.000000  0.250000  0.500000      1.000000
  0.250000  0.250000  0.500000      1.000000
  0.500000  0.250000  0.500000      1.000000
 -0.250000  0.250000  0.500000      1.000000
 -0.000000  0.500000  0.500000      1.000000
  0.250000  0.500000  0.500000      1.000000
  0.500000  0.500000  0.500000      1.000000
 -0.250000  0.500000  0.500000      1.000000
  0.000000 -0.250000  0.500000      1.000000
  0.250000 -0.250000  0.500000      1.000000
  0.500000 -0.250000  0.500000      1.000000
 -0.250000 -0.250000  0.500000      1.000000
  0.000000  0.000000 -0.250000      1.000000
  0.250000  0.000000 -0.250000      1.000000
  0.500000  0.000000 -0.250000      1.000000
 -0.250000  0.000000 -0.250000      1.000000
  0.000000  0.250000 -0.250000      1.000000
  0.250000  0.250000 -0.250000      1.000000
  0.500000  0.250000 -0.250000      1.000000
 -0.250000  0.250000 -0.250000      1.000000
  0.000000  0.500000 -0.250000      1.000000
  0.250000  0.500000 -0.250000      1.000000
  0.500000  0.500000 -0.250000      1.000000
 -0.250000  0.500000 -0.250000      1.000000
  0.000000 -0.250000 -0.250000      1.000000
  0.250000 -0.250000 -0.250000      1.000000
  0.500000 -0.250000 -0.250000      1.000000
 -0.250000 -0.250000 -0.250000      1.000000
 
 Following cartesian coordinates:
            Coordinates               Weight
  0.000000  0.000000  0.000000      1.000000
  0.057573 -0.033240 -0.023504      1.000000
  0.115145 -0.066479 -0.047008      1.000000
 -0.057573  0.033240  0.023504      1.000000
  0.000000  0.066479 -0.023504      1.000000
  0.057573  0.033240 -0.047008      1.000000
  0.115145  0.000000 -0.070512      1.000000
 -0.057573  0.099719  0.000000      1.000000
  0.000000  0.132958 -0.047008      1.000000
  0.057573  0.099719 -0.070512      1.000000
  0.115145  0.066479 -0.094016      1.000000
 -0.057573  0.166198 -0.023504      1.000000
 -0.000000 -0.066479  0.023504      1.000000
  0.057573 -0.099719 -0.000000      1.000000
  0.115145 -0.132958 -0.023504      1.000000
 -0.057573 -0.033240  0.047008      1.000000
 -0.000000  0.000000  0.070512      1.000000
  0.057573 -0.033240  0.047008      1.000000
  0.115145 -0.066479  0.023504      1.000000
 -0.057573  0.033240  0.094016      1.000000
 -0.000000  0.066479  0.047008      1.000000
  0.057573  0.033240  0.023504      1.000000
  0.115145  0.000000 -0.000000      1.000000
 -0.057573  0.099719  0.070512      1.000000
 -0.000000  0.132958  0.023504      1.000000
  0.057573  0.099719  0.000000      1.000000
  0.115145  0.066479 -0.023504      1.000000
 -0.057573  0.166198  0.047008      1.000000
 -0.000000 -0.066479  0.094016      1.000000
  0.057573 -0.099719  0.070512      1.000000
  0.115145 -0.132958  0.047008      1.000000
 -0.057573 -0.033240  0.117520      1.000000
 -0.000000  0.000000  0.141023      1.000000
  0.057573 -0.033240  0.117520      1.000000
  0.115145 -0.066479  0.094016      1.000000
 -0.057573  0.033240  0.164527      1.000000
 -0.000000  0.066479  0.117520      1.000000
  0.057573  0.033240  0.094016      1.000000
  0.115145  0.000000  0.070512      1.000000
 -0.057573  0.099719  0.141023      1.000000
 -0.000000  0.132958  0.094016      1.000000
  0.057573  0.099719  0.070512      1.000000
  0.115145  0.066479  0.047008      1.000000
 -0.057573  0.166198  0.117520      1.000000
 -0.000000 -0.066479  0.164527      1.000000
  0.057573 -0.099719  0.141023      1.000000
  0.115145 -0.132958  0.117520      1.000000
 -0.057573 -0.033240  0.188031      1.000000
  0.000000 -0.000000 -0.070512      1.000000
  0.057573 -0.033240 -0.094016      1.000000
  0.115145 -0.066479 -0.117520      1.000000
 -0.057573  0.033240 -0.047008      1.000000
  0.000000  0.066479 -0.094016      1.000000
  0.057573  0.033240 -0.117520      1.000000
  0.115145 -0.000000 -0.141023      1.000000
 -0.057573  0.099719 -0.070512      1.000000
  0.000000  0.132958 -0.117520      1.000000
  0.057573  0.099719 -0.141023      1.000000
  0.115145  0.066479 -0.164527      1.000000
 -0.057573  0.166198 -0.094016      1.000000
  0.000000 -0.066479 -0.047008      1.000000
  0.057573 -0.099719 -0.070512      1.000000
  0.115145 -0.132958 -0.094016      1.000000
 -0.057573 -0.033240 -0.023504      1.000000
 
 
 Subroutine IBZKPT_HF returns following result:
 ==============================================
 
 Found     64 k-points in 1st BZ
 the following     64 k-points will be used (e.g. in the exchange kernel)
 Following reciprocal coordinates:   # in IRBZ
  0.000000  0.000000  0.000000    0.01562500   1 t-inv F
  0.250000  0.000000  0.000000    0.01562500   2 t-inv F
  0.500000  0.000000  0.000000    0.01562500   3 t-inv F
 -0.250000 -0.000000 -0.000000    0.01562500   4 t-inv F
  0.000000  0.250000 -0.000000    0.01562500   5 t-inv F
  0.250000  0.250000  0.000000    0.01562500   6 t-inv F
  0.500000  0.250000  0.000000    0.01562500   7 t-inv F
 -0.250000  0.250000 -0.000000    0.01562500   8 t-inv F
  0.000000  0.500000 -0.000000    0.01562500   9 t-inv F
  0.250000  0.500000  0.000000    0.01562500  10 t-inv F
  0.500000  0.500000  0.000000    0.01562500  11 t-inv F
 -0.250000  0.500000 -0.000000    0.01562500  12 t-inv F
 -0.000000 -0.250000  0.000000    0.01562500  13 t-inv F
  0.250000 -0.250000  0.000000    0.01562500  14 t-inv F
  0.500000 -0.250000  0.000000    0.01562500  15 t-inv F
 -0.250000 -0.250000 -0.000000    0.01562500  16 t-inv F
  0.000000  0.000000  0.250000    0.01562500  17 t-inv F
  0.250000 -0.000000  0.250000    0.01562500  18 t-inv F
  0.500000 -0.000000  0.250000    0.01562500  19 t-inv F
 -0.250000 -0.000000  0.250000    0.01562500  20 t-inv F
 -0.000000  0.250000  0.250000    0.01562500  21 t-inv F
  0.250000  0.250000  0.250000    0.01562500  22 t-inv F
  0.500000  0.250000  0.250000    0.01562500  23 t-inv F
 -0.250000  0.250000  0.250000    0.01562500  24 t-inv F
 -0.000000  0.500000  0.250000    0.01562500  25 t-inv F
  0.250000  0.500000  0.250000    0.01562500  26 t-inv F
  0.500000  0.500000  0.250000    0.01562500  27 t-inv F
 -0.250000  0.500000  0.250000    0.01562500  28 t-inv F
  0.000000 -0.250000  0.250000    0.01562500  29 t-inv F
  0.250000 -0.250000  0.250000    0.01562500  30 t-inv F
  0.500000 -0.250000  0.250000    0.01562500  31 t-inv F
 -0.250000 -0.250000  0.250000    0.01562500  32 t-inv F
  0.000000  0.000000  0.500000    0.01562500  33 t-inv F
  0.250000  0.000000  0.500000    0.01562500  34 t-inv F
  0.500000 -0.000000  0.500000    0.01562500  35 t-inv F
 -0.250000  0.000000  0.500000    0.01562500  36 t-inv F
 -0.000000  0.250000  0.500000    0.01562500  37 t-inv F
  0.250000  0.250000  0.500000    0.01562500  38 t-inv F
  0.500000  0.250000  0.500000    0.01562500  39 t-inv F
 -0.250000  0.250000  0.500000    0.01562500  40 t-inv F
 -0.000000  0.500000  0.500000    0.01562500  41 t-inv F
  0.250000  0.500000  0.500000    0.01562500  42 t-inv F
  0.500000  0.500000  0.500000    0.01562500  43 t-inv F
 -0.250000  0.500000  0.500000    0.01562500  44 t-inv F
  0.000000 -0.250000  0.500000    0.01562500  45 t-inv F
  0.250000 -0.250000  0.500000    0.01562500  46 t-inv F
  0.500000 -0.250000  0.500000    0.01562500  47 t-inv F
 -0.250000 -0.250000  0.500000    0.01562500  48 t-inv F
  0.000000  0.000000 -0.250000    0.01562500  49 t-inv F
  0.250000  0.000000 -0.250000    0.01562500  50 t-inv F
  0.500000  0.000000 -0.250000    0.01562500  51 t-inv F
 -0.250000  0.000000 -0.250000    0.01562500  52 t-inv F
  0.000000  0.250000 -0.250000    0.01562500  53 t-inv F
  0.250000  0.250000 -0.250000    0.01562500  54 t-inv F
  0.500000  0.250000 -0.250000    0.01562500  55 t-inv F
 -0.250000  0.250000 -0.250000    0.01562500  56 t-inv F
  0.000000  0.500000 -0.250000    0.01562500  57 t-inv F
  0.250000  0.500000 -0.250000    0.01562500  58 t-inv F
  0.500000  0.500000 -0.250000    0.01562500  59 t-inv F
 -0.250000  0.500000 -0.250000    0.01562500  60 t-inv F
  0.000000 -0.250000 -0.250000    0.01562500  61 t-inv F
  0.250000 -0.250000 -0.250000    0.01562500  62 t-inv F
  0.500000 -0.250000 -0.250000    0.01562500  63 t-inv F
 -0.250000 -0.250000 -0.250000    0.01562500  64 t-inv F

 ----------------------------------------------------------------------------- 
|                                                                             |
|           W    W    AA    RRRRR   N    N  II  N    N   GGGG   !!!           |
|           W    W   A  A   R    R  NN   N  II  NN   N  G    G  !!!           |
|           W    W  A    A  R    R  N N  N  II  N N  N  G       !!!           |
|           W WW W  AAAAAA  RRRRR   N  N N  II  N  N N  G  GGG   !            |
|           WW  WW  A    A  R   R   N   NN  II  N   NN  G    G                |
|           W    W  A    A  R    R  N    N  II  N    N   GGGG   !!!           |
|                                                                             |
|      The number of bands has been changed from the values supplied          |
|      in the INCAR file. This is a result of running the parallel version.   |
|      The orbitals not found in the WAVECAR file will be initialized with    |
|      random numbers, which is usually adequate. For correlated              |
|      calculations, however, you should redo the groundstate calculation.    |
|      I found NBANDS    =       96  now  NBANDS  =     100                   |
|                                                                             |
 ----------------------------------------------------------------------------- 



--------------------------------------------------------------------------------------------------------




 Dimension of arrays:
   k-points           NKPTS =     64   k-points in BZ     NKDIM =     64   number of bands    NBANDS=    100
   number of dos      NEDOS =    301   number of ions     NIONS =      1
   non local maximal  LDIM  =      6   non local SUM 2l+1 LMDIM =     18
   total plane-waves  NPLWV =  21952
   max r-space proj   IRMAX =      1   max aug-charges    IRDMAX= 182324
   dimension x,y,z NGX =    28 NGY =   28 NGZ =   28
   dimension x,y,z NGXF=    56 NGYF=   56 NGZF=   56
   support grid    NGXF=   112 NGYF=  112 NGZF=  112
   ions per type =               1
   NGX,Y,Z   is equivalent  to a cutoff of  10.72, 10.72, 10.72 a.u.
   NGXF,Y,Z  is equivalent  to a cutoff of  21.44, 21.44, 21.44 a.u.

 SYSTEM =  Og_FCC                                  
 POSCAR =  Og_FCC                                  

 Startparameter for this run:
   NWRITE =      1    write-flag & timer
   PREC   = accura    normal or accurate (medium, high low for compatibility)
   ISTART =      1    job   : 0-new  1-cont  2-samecut
   ICHARG =      0    charge: 1-file 2-atom 10-const
   ISPIN  =      1    spin polarized calculation?
   LNONCOLLINEAR =      T non collinear calculations
   LSORBIT =      T    spin-orbit coupling
   INIWAV =      1    electr: 0-lowe 1-rand  2-diag
   LASPH  =      F    aspherical Exc in radial PAW
   METAGGA=      F    non-selfconsistent MetaGGA calc.

 Electronic Relaxation 1
   ENCUT  =  300.0 eV  22.05 Ry    4.70 a.u.   6.13  6.13  6.13*2*pi/ulx,y,z
   ENINI  =  300.0     initial cutoff
   ENAUG  =  361.0 eV  augmentation charge cutoff
   NELM   =      1;   NELMIN=  2; NELMDL=  0     # of ELM steps 
   EDIFF  = 0.1E-07   stopping-criterion for ELM
   LREAL  =      F    real-space projection
   NLSPLINE    = F    spline interpolate recip. space projectors
   LCOMPAT=      F    compatible to vasp.4.4
   GGA_COMPAT  = F    GGA compatible to vasp.4.4-vasp.4.6
   LMAXPAW     = -100 max onsite density
   LMAXMIX     =    2 max onsite mixed and CHGCAR
   VOSKOWN=      0    Vosko Wilk Nusair interpolation
   ROPT   =    0.00000
 Ionic relaxation
   EDIFFG = 0.1E-04   stopping-criterion for IOM
   NSW    =      1    number of steps for IOM
   NBLOCK =      1;   KBLOCK =      1    inner block; outer block 
   IBRION =     -1    ionic relax: 0-MD 1-quasi-New 2-CG
   NFREE  =      5    steps in history (QN), initial steepest desc. (CG)
   ISIF   =      3    stress and relaxation
   IWAVPR =     10    prediction:  0-non 1-charg 2-wave 3-comb
   ISYM   =      0    0-nonsym 1-usesym 2-fastsym
   LCORR  =      T    Harris-Foulkes like correction to forces

   POTIM  = 0.1000    time-step for ionic-motion
   TEIN   =    0.0    initial temperature
   TEBEG  =    0.0;   TEEND  =   0.0 temperature during run
   SMASS  =  -3.00    Nose mass-parameter (am)
   estimated Nose-frequenzy (Omega)   =  0.10E-29 period in steps =****** mass=  -0.431E-27a.u.
   SCALEE = 1.0000    scale energy and forces
   NPACO  =    256;   APACO  = 16.0  distance and # of slots for P.C.
   PSTRESS=    0.0 pullay stress

  Mass of Ions in am
   POMASS =   0.01
  Ionic Valenz
   ZVAL   =  18.00
  Atomic Wigner-Seitz radii
   RWIGS  =  -1.00
  virtual crystal weights 
   VCA    =   1.00
   NELECT =      18.0000    total number of electrons
   NUPDOWN=      -1.0000    fix difference up-down

 DOS related values:
   EMIN   =  10.00;   EMAX   =-10.00  energy-range for DOS
   EFERMI =   0.00
   ISMEAR =     0;   SIGMA  =   0.00  broadening in eV -4-tet -1-fermi 0-gaus

 Electronic relaxation 2 (details)
   IALGO  =     38    algorithm
   LDIAG  =      T    sub-space diagonalisation (order eigenvalues)
   LSUBROT=      F    optimize rotation matrix (better conditioning)
   TURBO    =      0    0=normal 1=particle mesh
   IRESTART =      0    0=no restart 2=restart with 2 vectors
   NREBOOT  =      0    no. of reboots
   NMIN     =      0    reboot dimension
   EREF     =   0.00    reference energy to select bands
   IMIX   =      1    mixing-type and parameters
     AMIX     =   0.40;   BMIX     =  1.00
     AMIX_MAG =   1.60;   BMIX_MAG =  1.00
     AMIN     =   0.10
     WC   =   100.;   INIMIX=   1;  MIXPRE=   1;  MAXMIX=  50

 Intra band minimization:
   WEIMIN = 0.0000     energy-eigenvalue tresh-hold
   EBREAK =  0.25E-10  absolut break condition
   DEPER  =   0.30     relativ break condition  

   TIME   =   0.40     timestep for ELM

  volume/ion in A,a.u.               =      57.90       390.71
  Fermi-wavevector in a.u.,A,eV,Ry     =   1.109038  2.095777 16.734680  1.229964
  Thomas-Fermi vector in A             =   2.245572
 
 Write flags
   LWAVE        =      T    write WAVECAR
   LDOWNSAMPLE  =      F    k-point downsampling of WAVECAR
   LCHARG       =      F    write CHGCAR
   LVTOT        =      F    write LOCPOT, total local potential
   LVHAR        =      F    write LOCPOT, Hartree potential only
   LELF         =      F    write electronic localiz. function (ELF)
   LORBIT       =      0    0 simple, 1 ext, 2 COOP (PROOUT), +10 PAW based schemes


 Dipole corrections
   LMONO  =      F    monopole corrections only (constant potential shift)
   LDIPOL =      F    correct potential (dipole corrections)
   IDIPOL =      0    1-x, 2-y, 3-z, 4-all directions 
   EPSILON=  1.0000000 bulk dielectric constant

 Exchange correlation treatment:
   GGA     =    PE    GGA type
   LEXCH   =     8    internal setting for exchange type
   VOSKOWN=      0    Vosko Wilk Nusair interpolation
   EXXOEP  =     0    0=HF, 1=EXX-LHF (local Hartree Fock) 2=EXX OEP
   LHFCALC =     T    Hartree Fock is set to
   LSYMGRAD=     F    symmetrize gradient (conserves proper symmetry)
   PRECFOCK=normal    Normal, Fast or Accurate (Low or Medium for compatibility)
   LRHFCALC=     F    long range Hartree Fock
   LRSCOR  =     F    long range correlation only (use DFT for short range part)
   LTHOMAS =     F    Thomas Fermi screening in HF
   LMODELHF=     F    short range full HF, long range fraction AEXX
   ENCUT4O =  -1.0   cutoff for four orbital integrals eV
   LMAXFOCK=     4    L truncation for augmentation on plane wave grid
   LMAXFOCKAE=   4    L truncation for all-electron charge restoration on plane wave grid
   NMAXFOCKAE=   1    number of basis functions for all-electron charge restoration
   LFOCKAEDFT=     F  apply the AE augmentation even for DFT
   NKREDX  =     1    reduce k-point grid by
   NKREDY  =     1    reduce k-point grid by
   NKREDZ  =     1    reduce k-point grid by
   SHIFTRED=     F    shift reduced grid of Gamma
   HFKIDENT=     F    idential grid for each k-point
   ODDONLY =     F    use only odd q-grid points
   EVENONLY=     F    use only even q-grid points
   HFALPHA =   -1.0000 decay constant for conv. correction
   MCALPHA =    0.0000 extent of test-charge in conv. correction in multipole expansion
   AEXX    =    1.0000 exact exchange contribution
   HFSCREEN=    0.0000 screening length (either q_TF or 0.3 A-1)
   HFSCREENC=   0.0000 screening length for correlation (either q_TF or 0.3 A-1)
   HFRCUT  =    0.0000 spherical cutoff for potential kernel
   ALDAX   =    0.0000 LDA exchange part
   AGGAX   =    0.0000 GGA exchange part
   ALDAC   =    0.0000 LDA correlation
   AGGAC   =    0.0000 GGA correlation
   ENCUTFOCK=  -1.0 apply spherical cutoff to Coloumb kernel
   NBANDSGWLOW=     1    first orbital included in HF term
   NBLOCK_FOCK=    64    blocking factor in FOCK_ACC
 Linear response parameters
   LEPSILON=     F    determine dielectric tensor
   LRPA    =     F    only Hartree local field effects (RPA)
   LNABLA  =     F    use nabla operator in PAW spheres
   LVEL    =     F    velocity operator in full k-point grid
   LINTERFAST=   F  fast interpolation
   KINTER  =     0    interpolate to denser k-point grid
   CSHIFT  =0.1000    complex shift for real part using Kramers Kronig
   OMEGAMAX=  -1.0    maximum frequency
   DEG_THRESHOLD= 0.2000000E-02 threshold for treating states as degnerate
   RTIME   =   -0.100 relaxation time in fs
  (WPLASMAI=    0.000 imaginary part of plasma frequency in eV, 0.658/RTIME)
   DFIELD  = 0.0000000 0.0000000 0.0000000 field for delta impulse in time
 
 Orbital magnetization related:
   ORBITALMAG=     F  switch on orbital magnetization
   LCHIMAG   =     F  perturbation theory with respect to B field
   DQ        =  0.001000  dq finite difference perturbation B field
   LLRAUG    =     F  two centre corrections for induced B field

 Response functions by sum over occupied states:
   ALGO    =QPGW       execute GW part
   LFXC    =     F    include DFT xc kernel in TD-HF and W
   LADDER  =     F    particle hole ladder diagrams for BSE/TD-HF and W (Nano-quanta)
   LRPAFORCE=     F   calculate RPA forces
   LHARTREE=     T    include Hartree terms (bubbles-RPA) in BSE/TD-HF
   IBSE    =     0    BSE modus: 0 exact, 1 time-evolution (store matrix), 10 time-evolution (implicit)
   KPOINT  =    -1   0   0   0    k-point index at which BSE equation is solved (and G at which response is eval.)
   LTRIPLET=     F    triplet instead of singlet excitation (BSE only)
   LRSRPA  =     F    range separated RPA (total - short) in ACFDT
   LTCTE   =     F    use test-charge test-electron dielectric function
   LTETE   =     F    use test-electron test-electron dielectric function
   LFXCEPS =     F    determine f_xc=epsilon-1/Xi Sharma and Gross kernel
   LFXHEG  =     F    model exchange using f_x(G,k_F) from free electron gas
   NATURALO=     2    0 natural orbitals, 1 only virtual, 2 only occupied-virtual rotation
   L2ORDER =     F    2nd order terms only
   LMP2LT   =     F    use LT MP2
   LUSEW   =     F    use screened W from WXXXX.tmp files instead of (screened) HF kernel
   ENCUTGW = 200.0    cutoff for response function in eV
   ENCUTGWSOFT = 200.0 soft cutoff for Coulomb kernel in GW response function in eV
   ENCUTLF =  -1.0    cutoff for local field effects
   LMAXMP2 =    -1    maximum L for one center terms
   SCISSOR =   0.0    scissor correction
   NOMEGA  =    50    number of frequencies
   NOMEGAR =    50    number of frequencies along real axis
   NBANDSGW=    -1    number of bands for which selfenergy shift is calculated
   NBANDSGWLOW=     1 lowest band included in GW (to exclude core correlation)
   NBANDSO =    -1    number of bands for electron-hole treatment (occupied)
   NBANDSV =    -1    number of bands for electron-hole treatment (virtual)
   NELM    =     1    number of iterations in solving QP/BSE equation
   NELMHF  =     1    number of iterations in the inner HF iteration
   DIM     =     3    dimensionality of system (0=0D molecules, 3=3D)
   ANTIRES =     0    antiresonant part (0) no TDA (1) w=0 exact (2) accurate
   OMEGAMAX= -30.0    maximum frequency
   OMEGAMIN= -30.000    minimum frequency
   OMEGATL =-200.0    maximum frequency of tail
   OMEGAGRID=     0    grid type (0 default)
   CSHIFT  =-0.100    complex shift used in evaluation of response functions
   SELFENERGY=   F    calculate selfenergy instead of QP shifts
   LSPECTRAL =   T    use spectral functions                   
   LSPECTRALGW=   F   use spectral functions to calculate int dz G(w-z) W(z) (more accurate)
   LSINGLES  =   F   calculate the singles contribution to the correlation energy
   LFERMIGW  =   F   update Fermi-energy in the Greens function

   ODDONLYGW =   F    avoid all even points for polarizability 
   EVENONLYGW=   F    avoid all odd  points for polarizability 
   NKREDLFX  =   1   NKREDLFY  =   1   NKREDLFZ  =   1

   TELESCOPE =   0   use telescope k-point sampling
   TAUPAR    =   1   number of TAU groups used in imaginary time calculation
   OMEGAPAR  =  -1   number of OMEGA groups used in imaginary frequency calculation



--------------------------------------------------------------------------------------------------------


 Static calculation
 charge density and potential will be updated during run
 non collinear spin polarized calculation
 Variant of blocked Davidson
 Davidson routine will perform the subspace rotation
 perform sub-space diagonalisation
    after iterative eigenvector-optimisation
 Kerker-like  mixing scheme
 using additional bands           91
 reciprocal scheme for non local part
 use partial core corrections
 calculate Harris-corrections to forces 
   (improved forces if not selfconsistent)
 use gradient corrections 
 use of overlap-Matrix (Vanderbilt PP)
 Gauss-broadening in eV      SIGMA  =   0.00


--------------------------------------------------------------------------------------------------------


  energy-cutoff  :      300.00
  volume of cell :       57.90
      direct lattice vectors                 reciprocal lattice vectors
     4.342345876  0.000000000  0.000000000     0.230290269 -0.132958149 -0.094015609
     2.171172938  3.760581840 -0.000000000     0.000000000  0.265916298 -0.094015609
     2.171172938  1.253527280  3.545510561    -0.000000000  0.000000000  0.282046826

  length of vectors
     4.342345876  4.342345876  4.342345876     0.282046826  0.282046826  0.282046826


 
 old parameters found on file WAVECAR:
  energy-cutoff  :      300.00
  volume of cell :       57.90
      direct lattice vectors                 reciprocal lattice vectors
     4.342345876  0.000000000  0.000000000     0.230290269 -0.132958149 -0.094015609
     2.171172938  3.760581840 -0.000000000     0.000000000  0.265916298 -0.094015609
     2.171172938  1.253527280  3.545510561    -0.000000000  0.000000000  0.282046826

  length of vectors

 
 k-points in units of 2pi/SCALE and weight: k-points                                
   0.00000000  0.00000000  0.00000000       0.016
   0.05757257 -0.03323954 -0.02350390       0.016
   0.11514513 -0.06647907 -0.04700780       0.016
  -0.05757257  0.03323954  0.02350390       0.016
   0.00000000  0.06647907 -0.02350390       0.016
   0.05757257  0.03323954 -0.04700780       0.016
   0.11514513  0.00000000 -0.07051171       0.016
  -0.05757257  0.09971861  0.00000000       0.016
   0.00000000  0.13295815 -0.04700780       0.016
   0.05757257  0.09971861 -0.07051171       0.016
   0.11514513  0.06647907 -0.09401561       0.016
  -0.05757257  0.16619769 -0.02350390       0.016
  -0.00000000 -0.06647907  0.02350390       0.016
   0.05757257 -0.09971861 -0.00000000       0.016
   0.11514513 -0.13295815 -0.02350390       0.016
  -0.05757257 -0.03323954  0.04700780       0.016
  -0.00000000  0.00000000  0.07051171       0.016
   0.05757257 -0.03323954  0.04700780       0.016
   0.11514513 -0.06647907  0.02350390       0.016
  -0.05757257  0.03323954  0.09401561       0.016
  -0.00000000  0.06647907  0.04700780       0.016
   0.05757257  0.03323954  0.02350390       0.016
   0.11514513  0.00000000 -0.00000000       0.016
  -0.05757257  0.09971861  0.07051171       0.016
  -0.00000000  0.13295815  0.02350390       0.016
   0.05757257  0.09971861  0.00000000       0.016
   0.11514513  0.06647907 -0.02350390       0.016
  -0.05757257  0.16619769  0.04700780       0.016
  -0.00000000 -0.06647907  0.09401561       0.016
   0.05757257 -0.09971861  0.07051171       0.016
   0.11514513 -0.13295815  0.04700780       0.016
  -0.05757257 -0.03323954  0.11751951       0.016
  -0.00000000  0.00000000  0.14102341       0.016
   0.05757257 -0.03323954  0.11751951       0.016
   0.11514513 -0.06647907  0.09401561       0.016
  -0.05757257  0.03323954  0.16452732       0.016
  -0.00000000  0.06647907  0.11751951       0.016
   0.05757257  0.03323954  0.09401561       0.016
   0.11514513  0.00000000  0.07051171       0.016
  -0.05757257  0.09971861  0.14102341       0.016
  -0.00000000  0.13295815  0.09401561       0.016
   0.05757257  0.09971861  0.07051171       0.016
   0.11514513  0.06647907  0.04700780       0.016
  -0.05757257  0.16619769  0.11751951       0.016
  -0.00000000 -0.06647907  0.16452732       0.016
   0.05757257 -0.09971861  0.14102341       0.016
   0.11514513 -0.13295815  0.11751951       0.016
  -0.05757257 -0.03323954  0.18803122       0.016
   0.00000000 -0.00000000 -0.07051171       0.016
   0.05757257 -0.03323954 -0.09401561       0.016
   0.11514513 -0.06647907 -0.11751951       0.016
  -0.05757257  0.03323954 -0.04700780       0.016
   0.00000000  0.06647907 -0.09401561       0.016
   0.05757257  0.03323954 -0.11751951       0.016
   0.11514513 -0.00000000 -0.14102341       0.016
  -0.05757257  0.09971861 -0.07051171       0.016
   0.00000000  0.13295815 -0.11751951       0.016
   0.05757257  0.09971861 -0.14102341       0.016
   0.11514513  0.06647907 -0.16452732       0.016
  -0.05757257  0.16619769 -0.09401561       0.016
   0.00000000 -0.06647907 -0.04700780       0.016
   0.05757257 -0.09971861 -0.07051171       0.016
   0.11514513 -0.13295815 -0.09401561       0.016
  -0.05757257 -0.03323954 -0.02350390       0.016
 
 k-points in reciprocal lattice and weights: k-points                                
   0.00000000  0.00000000  0.00000000       0.016
   0.25000000  0.00000000  0.00000000       0.016
   0.50000000  0.00000000  0.00000000       0.016
  -0.25000000 -0.00000000 -0.00000000       0.016
   0.00000000  0.25000000 -0.00000000       0.016
   0.25000000  0.25000000  0.00000000       0.016
   0.50000000  0.25000000  0.00000000       0.016
  -0.25000000  0.25000000 -0.00000000       0.016
   0.00000000  0.50000000 -0.00000000       0.016
   0.25000000  0.50000000  0.00000000       0.016
   0.50000000  0.50000000  0.00000000       0.016
  -0.25000000  0.50000000 -0.00000000       0.016
  -0.00000000 -0.25000000  0.00000000       0.016
   0.25000000 -0.25000000  0.00000000       0.016
   0.50000000 -0.25000000  0.00000000       0.016
  -0.25000000 -0.25000000 -0.00000000       0.016
   0.00000000  0.00000000  0.25000000       0.016
   0.25000000 -0.00000000  0.25000000       0.016
   0.50000000 -0.00000000  0.25000000       0.016
  -0.25000000 -0.00000000  0.25000000       0.016
  -0.00000000  0.25000000  0.25000000       0.016
   0.25000000  0.25000000  0.25000000       0.016
   0.50000000  0.25000000  0.25000000       0.016
  -0.25000000  0.25000000  0.25000000       0.016
  -0.00000000  0.50000000  0.25000000       0.016
   0.25000000  0.50000000  0.25000000       0.016
   0.50000000  0.50000000  0.25000000       0.016
  -0.25000000  0.50000000  0.25000000       0.016
   0.00000000 -0.25000000  0.25000000       0.016
   0.25000000 -0.25000000  0.25000000       0.016
   0.50000000 -0.25000000  0.25000000       0.016
  -0.25000000 -0.25000000  0.25000000       0.016
   0.00000000  0.00000000  0.50000000       0.016
   0.25000000  0.00000000  0.50000000       0.016
   0.50000000 -0.00000000  0.50000000       0.016
  -0.25000000  0.00000000  0.50000000       0.016
  -0.00000000  0.25000000  0.50000000       0.016
   0.25000000  0.25000000  0.50000000       0.016
   0.50000000  0.25000000  0.50000000       0.016
  -0.25000000  0.25000000  0.50000000       0.016
  -0.00000000  0.50000000  0.50000000       0.016
   0.25000000  0.50000000  0.50000000       0.016
   0.50000000  0.50000000  0.50000000       0.016
  -0.25000000  0.50000000  0.50000000       0.016
   0.00000000 -0.25000000  0.50000000       0.016
   0.25000000 -0.25000000  0.50000000       0.016
   0.50000000 -0.25000000  0.50000000       0.016
  -0.25000000 -0.25000000  0.50000000       0.016
   0.00000000  0.00000000 -0.25000000       0.016
   0.25000000  0.00000000 -0.25000000       0.016
   0.50000000  0.00000000 -0.25000000       0.016
  -0.25000000  0.00000000 -0.25000000       0.016
   0.00000000  0.25000000 -0.25000000       0.016
   0.25000000  0.25000000 -0.25000000       0.016
   0.50000000  0.25000000 -0.25000000       0.016
  -0.25000000  0.25000000 -0.25000000       0.016
   0.00000000  0.50000000 -0.25000000       0.016
   0.25000000  0.50000000 -0.25000000       0.016
   0.50000000  0.50000000 -0.25000000       0.016
  -0.25000000  0.50000000 -0.25000000       0.016
   0.00000000 -0.25000000 -0.25000000       0.016
   0.25000000 -0.25000000 -0.25000000       0.016
   0.50000000 -0.25000000 -0.25000000       0.016
  -0.25000000 -0.25000000 -0.25000000       0.016
 
 position of ions in fractional coordinates (direct lattice) 
   0.00000000  0.00000000  0.00000000
 
 position of ions in cartesian coordinates  (Angst):
   0.00000000  0.00000000  0.00000000
 
 Euler angles ALPHA=     0.0000000  BETA=     0.0000000

 transformation matrix from SAXIS to cartesian coordinates
 ---------------------------------------------------------
     1.0000000 m_x     0.0000000 m_y     0.0000000 m_z
     0.0000000 m_x     1.0000000 m_y     0.0000000 m_z
     0.0000000 m_x     0.0000000 m_y     1.0000000 m_z

 transformation matrix from cartesian coordinates to SAXIS
 ---------------------------------------------------------
     1.0000000 m_x     0.0000000 m_y     0.0000000 m_z
     0.0000000 m_x     1.0000000 m_y     0.0000000 m_z
     0.0000000 m_x     0.0000000 m_y     1.0000000 m_z




--------------------------------------------------------------------------------------------------------


 k-point  1 :   0.0000 0.0000 0.0000  plane waves:    1402
 k-point  2 :   0.2500 0.0000 0.0000  plane waves:    1358
 k-point  3 :   0.5000 0.0000 0.0000  plane waves:    1400
 k-point  4 :  -0.2500-0.0000-0.0000  plane waves:    1358
 k-point  5 :   0.0000 0.2500-0.0000  plane waves:    1358
 k-point  6 :   0.2500 0.2500 0.0000  plane waves:    1362
 k-point  7 :   0.5000 0.2500 0.0000  plane waves:    1374
 k-point  8 :  -0.2500 0.2500-0.0000  plane waves:    1352
 k-point  9 :   0.0000 0.5000-0.0000  plane waves:    1400
 k-point 10 :   0.2500 0.5000 0.0000  plane waves:    1374
 k-point 11 :   0.5000 0.5000 0.0000  plane waves:    1384
 k-point 12 :  -0.2500 0.5000-0.0000  plane waves:    1374
 k-point 13 :  -0.0000-0.2500 0.0000  plane waves:    1358
 k-point 14 :   0.2500-0.2500 0.0000  plane waves:    1352
 k-point 15 :   0.5000-0.2500 0.0000  plane waves:    1374
 k-point 16 :  -0.2500-0.2500-0.0000  plane waves:    1362
 k-point 17 :   0.0000 0.0000 0.2500  plane waves:    1358
 k-point 18 :   0.2500-0.0000 0.2500  plane waves:    1362
 k-point 19 :   0.5000-0.0000 0.2500  plane waves:    1374
 k-point 20 :  -0.2500-0.0000 0.2500  plane waves:    1352
 k-point 21 :  -0.0000 0.2500 0.2500  plane waves:    1362
 k-point 22 :   0.2500 0.2500 0.2500  plane waves:    1358
 k-point 23 :   0.5000 0.2500 0.2500  plane waves:    1352
 k-point 24 :  -0.2500 0.2500 0.2500  plane waves:    1374
 k-point 25 :  -0.0000 0.5000 0.2500  plane waves:    1374
 k-point 26 :   0.2500 0.5000 0.2500  plane waves:    1352
 k-point 27 :   0.5000 0.5000 0.2500  plane waves:    1374
 k-point 28 :  -0.2500 0.5000 0.2500  plane waves:    1368
 k-point 29 :   0.0000-0.2500 0.2500  plane waves:    1352
 k-point 30 :   0.2500-0.2500 0.2500  plane waves:    1374
 k-point 31 :   0.5000-0.2500 0.2500  plane waves:    1368
 k-point 32 :  -0.2500-0.2500 0.2500  plane waves:    1374
 k-point 33 :   0.0000 0.0000 0.5000  plane waves:    1400
 k-point 34 :   0.2500 0.0000 0.5000  plane waves:    1374
 k-point 35 :   0.5000-0.0000 0.5000  plane waves:    1384
 k-point 36 :  -0.2500 0.0000 0.5000  plane waves:    1374
 k-point 37 :  -0.0000 0.2500 0.5000  plane waves:    1374
 k-point 38 :   0.2500 0.2500 0.5000  plane waves:    1352
 k-point 39 :   0.5000 0.2500 0.5000  plane waves:    1374
 k-point 40 :  -0.2500 0.2500 0.5000  plane waves:    1368
 k-point 41 :  -0.0000 0.5000 0.5000  plane waves:    1384
 k-point 42 :   0.2500 0.5000 0.5000  plane waves:    1374
 k-point 43 :   0.5000 0.5000 0.5000  plane waves:    1400
 k-point 44 :  -0.2500 0.5000 0.5000  plane waves:    1374
 k-point 45 :   0.0000-0.2500 0.5000  plane waves:    1374
 k-point 46 :   0.2500-0.2500 0.5000  plane waves:    1368
 k-point 47 :   0.5000-0.2500 0.5000  plane waves:    1374
 k-point 48 :  -0.2500-0.2500 0.5000  plane waves:    1352
 k-point 49 :   0.0000 0.0000-0.2500  plane waves:    1358
 k-point 50 :   0.2500 0.0000-0.2500  plane waves:    1352
 k-point 51 :   0.5000 0.0000-0.2500  plane waves:    1374
 k-point 52 :  -0.2500 0.0000-0.2500  plane waves:    1362
 k-point 53 :   0.0000 0.2500-0.2500  plane waves:    1352
 k-point 54 :   0.2500 0.2500-0.2500  plane waves:    1374
 k-point 55 :   0.5000 0.2500-0.2500  plane waves:    1368
 k-point 56 :  -0.2500 0.2500-0.2500  plane waves:    1374
 k-point 57 :   0.0000 0.5000-0.2500  plane waves:    1374
 k-point 58 :   0.2500 0.5000-0.2500  plane waves:    1368
 k-point 59 :   0.5000 0.5000-0.2500  plane waves:    1374
 k-point 60 :  -0.2500 0.5000-0.2500  plane waves:    1352
 k-point 61 :   0.0000-0.2500-0.2500  plane waves:    1362
 k-point 62 :   0.2500-0.2500-0.2500  plane waves:    1374
 k-point 63 :   0.5000-0.2500-0.2500  plane waves:    1352
 k-point 64 :  -0.2500-0.2500-0.2500  plane waves:    1358

 maximum and minimum number of plane-waves per node :      1402     1352

 maximum number of plane-waves:      1402
 maximum index in each direction: 
   IXMAX=    6   IYMAX=    6   IZMAX=    6
   IXMIN=   -6   IYMIN=   -6   IZMIN=   -6


 serial   3D FFT for wavefunctions
 parallel 3D FFT for charge:
    minimum data exchange during FFTs selected (reduces bandwidth)


 FFT grid for exact exchange (Hartree Fock) 
  NGX = 20; NGY = 20; NGZ = 20

 
 Radii for the augmentation spheres in the non-local exchange
 for species   1 augmentation radius   1.202 (default was   1.202)
 error exchange integrals (PW-AE in eV) (mean, max) 0.801 3.766 density error[0,qmax] 0.0260
 Maximum index for augmentation-charges in exchange          959
  SETUP_FOCK is finished

 total amount of memory used by VASP MPI-rank0    88711. kBytes
=======================================================================

   base      :      30000. kBytes
   nonl-proj :       6508. kBytes
   fftplans  :      10640. kBytes
   grid      :      11239. kBytes
   one-center:         62. kBytes
   HF        :        129. kBytes
   nonlr-proj:        437. kBytes
   wavefun   :      29696. kBytes
 
     INWAV:  cpu time    0.8230: real time    0.8227
 charge density for first step will be calculated from the start-wavefunctions


--------------------------------------------------------------------------------------------------------


 Maximum index for augmentation-charges        37385 (set IRDMAX)


--------------------------------------------------------------------------------------------------------


 initial charge from wavefunction
    FEWALD:  cpu time    0.0608: real time    0.0607

 The Fermi energy was updated, please check that it is located mid-gap
 values below the HOMO (VB) or above the LUMO (CB) will cause erroneous energies
 E-fermi :   3.1305

 Response functions by sum over occupied states:
 ===============================================
   NOMEGA  =    50    number of frequencies
   NOMEGAR =    50    number of frequencies along real axis
   OMEGAMAX=  33.20   maximum frequency
   OMEGAMIN=   0.28   minimum frequency
   OMEGATL = 183.78   maximum frequency of tail
   CSHIFT  =  0.863   complex shift used in evaluation of response functions


 Energies iw= 
 ============
   0.000   0.000   0.616   0.000   1.229   0.000   1.838   0.000   2.441   0.000
   3.035   0.000   3.621   0.000   4.196   0.000   4.762   0.000   5.317   0.000
   5.863   0.000   6.399   0.000   6.928   0.000   7.450   0.000   7.967   0.000
   8.480   0.000   8.991   0.000   9.502   0.000  10.014   0.000  10.531   0.000
  11.053   0.000  11.584   0.000  12.126   0.000  12.682   0.000  13.255   0.000
  13.850   0.000  14.470   0.000  15.120   0.000  15.805   0.000  16.533   0.000
  17.311   0.000  18.149   0.000  19.057   0.000  20.049   0.000  21.144   0.000
  22.362   0.000  23.730   0.000  25.286   0.000  27.074   0.000  29.160   0.000
  31.628   0.000  34.602   0.000  38.261   0.000  42.876   0.000  48.879   0.000
  57.003   0.000  68.595   0.000  86.442   0.000 117.372   0.000 183.782   0.000
 

IMPORTANT INFORMATION: All symmetrisations will be switched off!
NOSYMM: (Re-)initialisation of all symmetry stuff for point group C_1.

 
 KPOINTS: k-points                                

Automatic generation of k-mesh.
Space group operators:
 irot       det(A)        alpha          n_x          n_y          n_z        tau_x        tau_y        tau_z
    1     1.000000     0.000000     1.000000     0.000000     0.000000     0.000000     0.000000     0.000000
 
 Subroutine IBZKPT returns following result:
 ===========================================
 
 Found     64 irreducible k-points:
 
 Following reciprocal coordinates:
            Coordinates               Weight
  0.000000  0.000000  0.000000      1.000000
  0.250000  0.000000  0.000000      1.000000
  0.500000  0.000000  0.000000      1.000000
 -0.250000 -0.000000 -0.000000      1.000000
  0.000000  0.250000 -0.000000      1.000000
  0.250000  0.250000  0.000000      1.000000
  0.500000  0.250000  0.000000      1.000000
 -0.250000  0.250000 -0.000000      1.000000
  0.000000  0.500000 -0.000000      1.000000
  0.250000  0.500000  0.000000      1.000000
  0.500000  0.500000  0.000000      1.000000
 -0.250000  0.500000 -0.000000      1.000000
 -0.000000 -0.250000  0.000000      1.000000
  0.250000 -0.250000  0.000000      1.000000
  0.500000 -0.250000  0.000000      1.000000
 -0.250000 -0.250000 -0.000000      1.000000
  0.000000  0.000000  0.250000      1.000000
  0.250000 -0.000000  0.250000      1.000000
  0.500000 -0.000000  0.250000      1.000000
 -0.250000 -0.000000  0.250000      1.000000
 -0.000000  0.250000  0.250000      1.000000
  0.250000  0.250000  0.250000      1.000000
  0.500000  0.250000  0.250000      1.000000
 -0.250000  0.250000  0.250000      1.000000
 -0.000000  0.500000  0.250000      1.000000
  0.250000  0.500000  0.250000      1.000000
  0.500000  0.500000  0.250000      1.000000
 -0.250000  0.500000  0.250000      1.000000
  0.000000 -0.250000  0.250000      1.000000
  0.250000 -0.250000  0.250000      1.000000
  0.500000 -0.250000  0.250000      1.000000
 -0.250000 -0.250000  0.250000      1.000000
  0.000000  0.000000  0.500000      1.000000
  0.250000  0.000000  0.500000      1.000000
  0.500000 -0.000000  0.500000      1.000000
 -0.250000  0.000000  0.500000      1.000000
 -0.000000  0.250000  0.500000      1.000000
  0.250000  0.250000  0.500000      1.000000
  0.500000  0.250000  0.500000      1.000000
 -0.250000  0.250000  0.500000      1.000000
 -0.000000  0.500000  0.500000      1.000000
  0.250000  0.500000  0.500000      1.000000
  0.500000  0.500000  0.500000      1.000000
 -0.250000  0.500000  0.500000      1.000000
  0.000000 -0.250000  0.500000      1.000000
  0.250000 -0.250000  0.500000      1.000000
  0.500000 -0.250000  0.500000      1.000000
 -0.250000 -0.250000  0.500000      1.000000
  0.000000  0.000000 -0.250000      1.000000
  0.250000  0.000000 -0.250000      1.000000
  0.500000  0.000000 -0.250000      1.000000
 -0.250000  0.000000 -0.250000      1.000000
  0.000000  0.250000 -0.250000      1.000000
  0.250000  0.250000 -0.250000      1.000000
  0.500000  0.250000 -0.250000      1.000000
 -0.250000  0.250000 -0.250000      1.000000
  0.000000  0.500000 -0.250000      1.000000
  0.250000  0.500000 -0.250000      1.000000
  0.500000  0.500000 -0.250000      1.000000
 -0.250000  0.500000 -0.250000      1.000000
  0.000000 -0.250000 -0.250000      1.000000
  0.250000 -0.250000 -0.250000      1.000000
  0.500000 -0.250000 -0.250000      1.000000
 -0.250000 -0.250000 -0.250000      1.000000
 
 Following cartesian coordinates:
            Coordinates               Weight
  0.000000  0.000000  0.000000      1.000000
  0.057573 -0.033240 -0.023504      1.000000
  0.115145 -0.066479 -0.047008      1.000000
 -0.057573  0.033240  0.023504      1.000000
  0.000000  0.066479 -0.023504      1.000000
  0.057573  0.033240 -0.047008      1.000000
  0.115145  0.000000 -0.070512      1.000000
 -0.057573  0.099719  0.000000      1.000000
  0.000000  0.132958 -0.047008      1.000000
  0.057573  0.099719 -0.070512      1.000000
  0.115145  0.066479 -0.094016      1.000000
 -0.057573  0.166198 -0.023504      1.000000
 -0.000000 -0.066479  0.023504      1.000000
  0.057573 -0.099719 -0.000000      1.000000
  0.115145 -0.132958 -0.023504      1.000000
 -0.057573 -0.033240  0.047008      1.000000
 -0.000000  0.000000  0.070512      1.000000
  0.057573 -0.033240  0.047008      1.000000
  0.115145 -0.066479  0.023504      1.000000
 -0.057573  0.033240  0.094016      1.000000
 -0.000000  0.066479  0.047008      1.000000
  0.057573  0.033240  0.023504      1.000000
  0.115145  0.000000 -0.000000      1.000000
 -0.057573  0.099719  0.070512      1.000000
 -0.000000  0.132958  0.023504      1.000000
  0.057573  0.099719  0.000000      1.000000
  0.115145  0.066479 -0.023504      1.000000
 -0.057573  0.166198  0.047008      1.000000
 -0.000000 -0.066479  0.094016      1.000000
  0.057573 -0.099719  0.070512      1.000000
  0.115145 -0.132958  0.047008      1.000000
 -0.057573 -0.033240  0.117520      1.000000
 -0.000000  0.000000  0.141023      1.000000
  0.057573 -0.033240  0.117520      1.000000
  0.115145 -0.066479  0.094016      1.000000
 -0.057573  0.033240  0.164527      1.000000
 -0.000000  0.066479  0.117520      1.000000
  0.057573  0.033240  0.094016      1.000000
  0.115145  0.000000  0.070512      1.000000
 -0.057573  0.099719  0.141023      1.000000
 -0.000000  0.132958  0.094016      1.000000
  0.057573  0.099719  0.070512      1.000000
  0.115145  0.066479  0.047008      1.000000
 -0.057573  0.166198  0.117520      1.000000
 -0.000000 -0.066479  0.164527      1.000000
  0.057573 -0.099719  0.141023      1.000000
  0.115145 -0.132958  0.117520      1.000000
 -0.057573 -0.033240  0.188031      1.000000
  0.000000 -0.000000 -0.070512      1.000000
  0.057573 -0.033240 -0.094016      1.000000
  0.115145 -0.066479 -0.117520      1.000000
 -0.057573  0.033240 -0.047008      1.000000
  0.000000  0.066479 -0.094016      1.000000
  0.057573  0.033240 -0.117520      1.000000
  0.115145 -0.000000 -0.141023      1.000000
 -0.057573  0.099719 -0.070512      1.000000
  0.000000  0.132958 -0.117520      1.000000
  0.057573  0.099719 -0.141023      1.000000
  0.115145  0.066479 -0.164527      1.000000
 -0.057573  0.166198 -0.094016      1.000000
  0.000000 -0.066479 -0.047008      1.000000
  0.057573 -0.099719 -0.070512      1.000000
  0.115145 -0.132958 -0.094016      1.000000
 -0.057573 -0.033240 -0.023504      1.000000
 
 files read and symmetry switched off, memory is now:
 total amount of memory used by VASP MPI-rank0    88711. kBytes
=======================================================================

   base      :      30000. kBytes
   nonl-proj :       6508. kBytes
   fftplans  :      10640. kBytes
   grid      :      11239. kBytes
   one-center:         62. kBytes
   HF        :        129. kBytes
   nonlr-proj:        437. kBytes
   wavefun   :      29696. kBytes
 
 Basis sets for responsefunctions:
 =================================
 k-point  1 :   0.0000 0.0000 0.0000  plane waves:     678
 k-point  2 :   0.2500 0.0000 0.0000  plane waves:     718
 k-point  3 :   0.5000 0.0000 0.0000  plane waves:     736
 k-point  4 :  -0.2500-0.0000-0.0000  plane waves:     718
 k-point  5 :   0.0000 0.2500-0.0000  plane waves:     718
 k-point  6 :   0.2500 0.2500 0.0000  plane waves:     702
 k-point  7 :   0.5000 0.2500 0.0000  plane waves:     740
 k-point  8 :  -0.2500 0.2500-0.0000  plane waves:     746
 k-point  9 :   0.0000 0.5000-0.0000  plane waves:     736
 k-point 10 :   0.2500 0.5000 0.0000  plane waves:     740
 k-point 11 :   0.5000 0.5000 0.0000  plane waves:     776
 k-point 12 :  -0.2500 0.5000-0.0000  plane waves:     740
 k-point 13 :  -0.0000-0.2500 0.0000  plane waves:     718
 k-point 14 :   0.2500-0.2500 0.0000  plane waves:     746
 k-point 15 :   0.5000-0.2500 0.0000  plane waves:     740
 k-point 16 :  -0.2500-0.2500-0.0000  plane waves:     702
 k-point 17 :   0.0000 0.0000 0.2500  plane waves:     718
 k-point 18 :   0.2500-0.0000 0.2500  plane waves:     702
 k-point 19 :   0.5000-0.0000 0.2500  plane waves:     740
 k-point 20 :  -0.2500-0.0000 0.2500  plane waves:     746
 k-point 21 :  -0.0000 0.2500 0.2500  plane waves:     702
 k-point 22 :   0.2500 0.2500 0.2500  plane waves:     718
 k-point 23 :   0.5000 0.2500 0.2500  plane waves:     746
 k-point 24 :  -0.2500 0.2500 0.2500  plane waves:     740
 k-point 25 :  -0.0000 0.5000 0.2500  plane waves:     740
 k-point 26 :   0.2500 0.5000 0.2500  plane waves:     746
 k-point 27 :   0.5000 0.5000 0.2500  plane waves:     740
 k-point 28 :  -0.2500 0.5000 0.2500  plane waves:     760
 k-point 29 :   0.0000-0.2500 0.2500  plane waves:     746
 k-point 30 :   0.2500-0.2500 0.2500  plane waves:     740
 k-point 31 :   0.5000-0.2500 0.2500  plane waves:     760
 k-point 32 :  -0.2500-0.2500 0.2500  plane waves:     740
 k-point 33 :   0.0000 0.0000 0.5000  plane waves:     736
 k-point 34 :   0.2500 0.0000 0.5000  plane waves:     740
 k-point 35 :   0.5000-0.0000 0.5000  plane waves:     776
 k-point 36 :  -0.2500 0.0000 0.5000  plane waves:     740
 k-point 37 :  -0.0000 0.2500 0.5000  plane waves:     740
 k-point 38 :   0.2500 0.2500 0.5000  plane waves:     746
 k-point 39 :   0.5000 0.2500 0.5000  plane waves:     740
 k-point 40 :  -0.2500 0.2500 0.5000  plane waves:     760
 k-point 41 :  -0.0000 0.5000 0.5000  plane waves:     776
 k-point 42 :   0.2500 0.5000 0.5000  plane waves:     740
 k-point 43 :   0.5000 0.5000 0.5000  plane waves:     736
 k-point 44 :  -0.2500 0.5000 0.5000  plane waves:     740
 k-point 45 :   0.0000-0.2500 0.5000  plane waves:     740
 k-point 46 :   0.2500-0.2500 0.5000  plane waves:     760
 k-point 47 :   0.5000-0.2500 0.5000  plane waves:     740
 k-point 48 :  -0.2500-0.2500 0.5000  plane waves:     746
 k-point 49 :   0.0000 0.0000-0.2500  plane waves:     718
 k-point 50 :   0.2500 0.0000-0.2500  plane waves:     746
 k-point 51 :   0.5000 0.0000-0.2500  plane waves:     740
 k-point 52 :  -0.2500 0.0000-0.2500  plane waves:     702
 k-point 53 :   0.0000 0.2500-0.2500  plane waves:     746
 k-point 54 :   0.2500 0.2500-0.2500  plane waves:     740
 k-point 55 :   0.5000 0.2500-0.2500  plane waves:     760
 k-point 56 :  -0.2500 0.2500-0.2500  plane waves:     740
 k-point 57 :   0.0000 0.5000-0.2500  plane waves:     740
 k-point 58 :   0.2500 0.5000-0.2500  plane waves:     760
 k-point 59 :   0.5000 0.5000-0.2500  plane waves:     740
 k-point 60 :  -0.2500 0.5000-0.2500  plane waves:     746
 k-point 61 :   0.0000-0.2500-0.2500  plane waves:     702
 k-point 62 :   0.2500-0.2500-0.2500  plane waves:     740
 k-point 63 :   0.5000-0.2500-0.2500  plane waves:     746
 k-point 64 :  -0.2500-0.2500-0.2500  plane waves:     718

 maximum and minimum number of plane-waves per node :       776      678

 maximum number of plane-waves:       776
 maximum index in each direction: 
   IXMAX=    5   IYMAX=    5   IZMAX=    5
   IXMIN=   -5   IYMIN=   -5   IZMIN=   -5

 exchange correlation table for  LEXCH =        8
   RHO(1)=    0.500       N(1)  =     2000
   RHO(2)=  100.500       N(2)  =     4000
 shmem allocating  50 responsefunctions rank=   390
 response function shared by NCSHMEM nodes    1
 all allocation done, memory is now:
 total amount of memory used by VASP MPI-rank0   344842. kBytes
=======================================================================

   base      :      30000. kBytes
   nonl-proj :       6508. kBytes
   fftplans  :      10640. kBytes
   grid      :      11239. kBytes
   one-center:         62. kBytes
   HF        :        129. kBytes
   nonlr-proj:        437. kBytes
   wavefun   :      89088. kBytes
   2eintegral:      52428. kBytes
   fockhandle:      10276. kBytes
   response  :     134035. kBytes
 


--------------------------------------------------------------------------------------------------------


NQ=   1    0.0000    0.0000    0.0000, 
       CHI:  cpu time    0.7251: real time    0.7245
   KRAMKRO:  cpu time    0.4835: real time    0.4831
    LFIELD:  cpu time    0.0000: real time    0.0000

 HEAD OF MICROSCOPIC DIELECTRIC TENSOR (INDEPENDENT PARTICLE)
 -------------------------------------
 w=     0.000     0.000
        32.4822   -0.0000      0.0497   -3.4498      0.0428    5.6309
         0.0497    3.4498     32.3756   -0.0000     -0.0406   -5.2445
         0.0428   -5.6309     -0.0406    5.2445     32.3969    0.0000

        0.000        32.418    -0.000 dielectric  constant
 
 w=     0.616     0.000
        20.2072   18.3429      2.3701   -1.8193     -3.8015    3.0536
        -2.3163    1.8868     20.1496   18.2704      3.5404   -2.8446
         3.8477   -2.9954     -3.5838    2.7895     20.1610   18.2849

        0.616        20.173    18.299 dielectric  constant
 
 w=     1.229     0.000
         4.6869   15.5309      1.9370    0.2092     -3.1681   -0.2716
        -1.9422   -0.1531      4.6924   15.4707      2.9507    0.2526
         3.1636    0.3199     -2.9465   -0.2981      4.6913   15.4827

        1.229         4.690    15.495 dielectric  constant
 
 w=     1.838     0.000
         1.7412    8.3119      0.9312    0.6190     -1.5417   -0.9764
        -0.9487   -0.5917      1.7600    8.2827      1.4360    0.9092
         1.5266    0.9998     -1.4219   -0.9312      1.7563    8.2885

        1.838         1.752     8.294 dielectric  constant
 
 w=     2.441     0.000
         2.8568    5.5204      0.4491    0.5084     -0.7511   -0.8134
        -0.4637   -0.4952      2.8724    5.5062      0.6998    0.7574
         0.7386    0.8248     -0.6881   -0.7681      2.8693    5.5091

        2.441         2.866     5.512 dielectric  constant
 
 w=     3.035     0.000
         3.5525    5.3340      0.2430    0.3783     -0.4101   -0.6086
        -0.2539   -0.3711      3.5641    5.3263      0.3824    0.5668
         0.4008    0.6147     -0.3736   -0.5726      3.5618    5.3279

        3.035         3.559     5.329 dielectric  constant
 
 w=     3.621     0.000
         2.9568    5.5746      0.1456    0.2853     -0.2476   -0.4603
        -0.1537   -0.2810      2.9655    5.5699      0.2310    0.4290
         0.2406    0.4640     -0.2244   -0.4325      2.9638    5.5709

        3.621         2.962     5.572 dielectric  constant
 
 w=     4.196     0.000
         2.1773    4.9625      0.0938    0.2217     -0.1609   -0.3582
        -0.1001   -0.2189      2.1841    4.9595      0.1499    0.3341
         0.1554    0.3606     -0.1448   -0.3364      2.1827    4.9601

        4.196         2.181     4.961 dielectric  constant
 
 w=     4.762     0.000
         2.2120    4.2657      0.0637    0.1769     -0.1102   -0.2862
        -0.0687   -0.1750      2.2174    4.2636      0.1025    0.2670
         0.1059    0.2879     -0.0984   -0.2686      2.2163    4.2640

        4.762         2.215     4.264 dielectric  constant
 
 w=     5.317     0.000
         2.5439    4.2516      0.0453    0.1444     -0.0790   -0.2339
        -0.0493   -0.1430      2.5483    4.2502      0.0733    0.2182
         0.0755    0.2351     -0.0700   -0.2193      2.5474    4.2504

        5.317         2.547     4.251 dielectric  constant
 
 w=     5.863     0.000
         2.4934    4.8287      0.0336    0.1207     -0.0591   -0.1956
        -0.0370   -0.1196      2.4971    4.8275      0.0549    0.1824
         0.0562    0.1965     -0.0521   -0.1832      2.4963    4.8278

        5.863         2.496     4.828 dielectric  constant
 
 w=     6.399     0.000
         1.5889    5.3534      0.0255    0.1033     -0.0452   -0.1676
        -0.0284   -0.1025      1.5920    5.3526      0.0419    0.1564
         0.0427    0.1682     -0.0396   -0.1570      1.5914    5.3528

        6.399         1.591     5.353 dielectric  constant
 
 w=     6.928     0.000
         0.4986    4.9664      0.0187    0.0902     -0.0336   -0.1464
        -0.0211   -0.0896      0.5012    4.9657      0.0309    0.1369
         0.0315    0.1470     -0.0289   -0.1374      0.5007    4.9659

        6.928         0.500     4.966 dielectric  constant
 
 w=     7.450     0.000
         0.0425    4.2728      0.0120    0.0794     -0.0225   -0.1289
        -0.0142   -0.0789      0.0448    4.2723      0.0198    0.1205
         0.0206    0.1293     -0.0181   -0.1209      0.0444    4.2724

        7.450         0.044     4.272 dielectric  constant
 
 w=     7.967     0.000
        -0.1600    3.8002      0.0053    0.0680     -0.0113   -0.1106
        -0.0072   -0.0676     -0.1580    3.7997      0.0086    0.1026
         0.0097    0.1109     -0.0071   -0.1029     -0.1584    3.7998

        7.967        -0.159     3.800 dielectric  constant
 
 w=     8.480     0.000
        -0.3198    3.3970      0.0029    0.0541     -0.0070   -0.0883
        -0.0046   -0.0538     -0.3180    3.3966      0.0052    0.0798
         0.0055    0.0886     -0.0039   -0.0801     -0.3184    3.3967

        8.480        -0.319     3.397 dielectric  constant
 
 w=     8.991     0.000
        -0.4543    3.0713      0.0074    0.0455     -0.0138   -0.0743
        -0.0089   -0.0453     -0.4527    3.0710      0.0141    0.0667
         0.0125    0.0745     -0.0130   -0.0670     -0.4530    3.0711

        8.991        -0.453     3.071 dielectric  constant
 
 w=     9.502     0.000
        -0.6304    2.6963      0.0091    0.0438     -0.0162   -0.0713
        -0.0104   -0.0436     -0.6289    2.6960      0.0171    0.0660
         0.0150    0.0715     -0.0160   -0.0662     -0.6292    2.6961

        9.502        -0.630     2.696 dielectric  constant
 
 w=    10.014     0.000
        -0.6560    2.2330      0.0072    0.0416     -0.0131   -0.0676
        -0.0084   -0.0414     -0.6548    2.2328      0.0134    0.0635
         0.0120    0.0678     -0.0124   -0.0637     -0.6550    2.2328

       10.014        -0.655     2.233 dielectric  constant
 
 w=    10.531     0.000
        -0.5246    1.9145      0.0053    0.0384     -0.0099   -0.0624
        -0.0064   -0.0383     -0.5234    1.9144      0.0098    0.0589
         0.0090    0.0626     -0.0089   -0.0590     -0.5236    1.9144

       10.531        -0.524     1.914 dielectric  constant
 
 w=    11.053     0.000
        -0.4709    1.7385      0.0036    0.0353     -0.0071   -0.0574
        -0.0046   -0.0352     -0.4698    1.7383      0.0068    0.0541
         0.0062    0.0575     -0.0060   -0.0543     -0.4701    1.7383

       11.053        -0.470     1.738 dielectric  constant
 
 w=    11.584     0.000
        -0.4974    1.4999      0.0018    0.0320     -0.0041   -0.0520
        -0.0027   -0.0319     -0.4964    1.4997      0.0037    0.0489
         0.0033    0.0521     -0.0029   -0.0490     -0.4966    1.4997

       11.584        -0.497     1.500 dielectric  constant
 
 w=    12.126     0.000
        -0.4385    1.1908      0.0007    0.0280     -0.0021   -0.0455
        -0.0015   -0.0278     -0.4376    1.1907      0.0017    0.0426
         0.0015    0.0456     -0.0011   -0.0427     -0.4378    1.1907

       12.126        -0.438     1.191 dielectric  constant
 
 w=    12.682     0.000
        -0.2745    0.9415      0.0010    0.0244     -0.0025   -0.0397
        -0.0017   -0.0243     -0.2737    0.9414      0.0022    0.0370
         0.0019    0.0398     -0.0016   -0.0371     -0.2739    0.9414

       12.682        -0.274     0.941 dielectric  constant
 
 w=    13.255     0.000
        -0.0990    0.7820      0.0015    0.0221     -0.0034   -0.0359
        -0.0022   -0.0220     -0.0982    0.7819      0.0030    0.0335
         0.0028    0.0360     -0.0025   -0.0335     -0.0984    0.7820

       13.255        -0.099     0.782 dielectric  constant
 
 w=    13.850     0.000
         0.0689    0.6611      0.0017    0.0203     -0.0035   -0.0331
        -0.0023   -0.0203      0.0696    0.6610      0.0032    0.0308
         0.0030    0.0332     -0.0027   -0.0309      0.0694    0.6610

       13.850         0.069     0.661 dielectric  constant
 
 w=    14.470     0.000
         0.2443    0.5915      0.0016    0.0187     -0.0034   -0.0305
        -0.0022   -0.0187      0.2449    0.5915      0.0032    0.0284
         0.0029    0.0306     -0.0027   -0.0284      0.2448    0.5915

       14.470         0.245     0.591 dielectric  constant
 
 w=    15.120     0.000
         0.3904    0.5775      0.0016    0.0173     -0.0032   -0.0281
        -0.0021   -0.0172      0.3909    0.5775      0.0030    0.0261
         0.0027    0.0281     -0.0025   -0.0262      0.3908    0.5775

       15.120         0.391     0.578 dielectric  constant
 
 w=    15.805     0.000
         0.4970    0.5832      0.0014    0.0159     -0.0029   -0.0258
        -0.0019   -0.0158      0.4975    0.5831      0.0027    0.0240
         0.0025    0.0259     -0.0023   -0.0241      0.4974    0.5831

       15.805         0.497     0.583 dielectric  constant
 
 w=    16.533     0.000
         0.5832    0.6053      0.0013    0.0145     -0.0026   -0.0237
        -0.0017   -0.0145      0.5837    0.6053      0.0025    0.0221
         0.0023    0.0237     -0.0021   -0.0221      0.5836    0.6053

       16.533         0.583     0.605 dielectric  constant
 
 w=    17.311     0.000
         0.6191    0.6474      0.0011    0.0133     -0.0023   -0.0217
        -0.0015   -0.0133      0.6196    0.6474      0.0022    0.0202
         0.0020    0.0217     -0.0019   -0.0202      0.6195    0.6474

       17.311         0.619     0.647 dielectric  constant
 
 w=    18.149     0.000
         0.6272    0.6531      0.0010    0.0121     -0.0021   -0.0198
        -0.0013   -0.0121      0.6276    0.6531      0.0019    0.0184
         0.0017    0.0198     -0.0016   -0.0185      0.6275    0.6531

       18.149         0.627     0.653 dielectric  constant
 
 w=    19.057     0.000
         0.6305    0.6768      0.0009    0.0110     -0.0018   -0.0180
        -0.0012   -0.0110      0.6309    0.6768      0.0017    0.0167
         0.0015    0.0180     -0.0014   -0.0167      0.6308    0.6768

       19.057         0.631     0.677 dielectric  constant
 
 w=    20.049     0.000
         0.5592    0.6868      0.0008    0.0100     -0.0016   -0.0162
        -0.0011   -0.0099      0.5596    0.6868      0.0015    0.0151
         0.0013    0.0163     -0.0012   -0.0151      0.5595    0.6868

       20.049         0.559     0.687 dielectric  constant
 
 w=    21.144     0.000
         0.4590    0.5874      0.0006    0.0090     -0.0014   -0.0146
        -0.0009   -0.0089      0.4593    0.5874      0.0013    0.0136
         0.0011    0.0146     -0.0011   -0.0136      0.4593    0.5874

       21.144         0.459     0.587 dielectric  constant
 
 w=    22.362     0.000
         0.4626    0.3976      0.0005    0.0080     -0.0012   -0.0130
        -0.0008   -0.0080      0.4629    0.3976      0.0011    0.0121
         0.0010    0.0130     -0.0009   -0.0121      0.4628    0.3976

       22.362         0.463     0.398 dielectric  constant
 
 w=    23.730     0.000
         0.5822    0.2688      0.0005    0.0070     -0.0010   -0.0115
        -0.0007   -0.0070      0.5824    0.2687      0.0010    0.0107
         0.0009    0.0115     -0.0008   -0.0107      0.5824    0.2687

       23.730         0.582     0.269 dielectric  constant
 
 w=    25.286     0.000
         0.7096    0.2354      0.0005    0.0061     -0.0010   -0.0099
        -0.0007   -0.0061      0.7098    0.2354      0.0010    0.0092
         0.0009    0.0099     -0.0008   -0.0092      0.7097    0.2354

       25.286         0.710     0.235 dielectric  constant
 
 w=    27.074     0.000
         0.7835    0.2566      0.0007    0.0053     -0.0014   -0.0087
        -0.0009   -0.0053      0.7836    0.2566      0.0013    0.0081
         0.0012    0.0087     -0.0011   -0.0081      0.7836    0.2566

       27.074         0.784     0.257 dielectric  constant
 
 w=    29.160     0.000
         0.7919    0.2641      0.0008    0.0050     -0.0015   -0.0081
        -0.0010   -0.0050      0.7920    0.2641      0.0014    0.0076
         0.0014    0.0081     -0.0013   -0.0076      0.7920    0.2641

       29.160         0.792     0.264 dielectric  constant
 
 w=    31.628     0.000
         0.8026    0.2063      0.0003    0.0045     -0.0006   -0.0074
        -0.0004   -0.0045      0.8027    0.2063      0.0006    0.0069
         0.0005    0.0074     -0.0005   -0.0069      0.8027    0.2063

       31.628         0.803     0.206 dielectric  constant
 
 w=    34.602     0.000
         0.8602    0.1537      0.0000    0.0036     -0.0002   -0.0059
        -0.0001   -0.0036      0.8603    0.1537      0.0001    0.0055
         0.0001    0.0060     -0.0001   -0.0055      0.8602    0.1537

       34.602         0.860     0.154 dielectric  constant
 
 w=    38.261     0.000
         0.9411    0.1254     -0.0000    0.0029     -0.0001   -0.0047
        -0.0001   -0.0028      0.9412    0.1254      0.0001    0.0043
         0.0000    0.0047     -0.0000   -0.0043      0.9412    0.1254

       38.261         0.941     0.125 dielectric  constant
 
 w=    42.876     0.000
         1.0387    0.1519      0.0001    0.0022     -0.0002   -0.0036
        -0.0001   -0.0022      1.0387    0.1519      0.0002    0.0034
         0.0001    0.0036     -0.0001   -0.0034      1.0387    0.1519

       42.876         1.039     0.152 dielectric  constant
 
 w=    48.879     0.000
         1.0555    0.2859      0.0000    0.0017     -0.0001   -0.0028
        -0.0001   -0.0017      1.0556    0.2859      0.0001    0.0026
         0.0001    0.0028     -0.0001   -0.0026      1.0556    0.2859

       48.879         1.056     0.286 dielectric  constant
 
 w=    57.003     0.000
         0.9041    0.3572      0.0000    0.0013     -0.0001   -0.0021
        -0.0001   -0.0013      0.9041    0.3572      0.0001    0.0019
         0.0000    0.0021     -0.0000   -0.0020      0.9041    0.3572

       57.003         0.904     0.357 dielectric  constant
 
 w=    68.595     0.000
         0.7862    0.1673      0.0000    0.0009     -0.0000   -0.0014
        -0.0000   -0.0009      0.7862    0.1673      0.0000    0.0013
         0.0000    0.0014     -0.0000   -0.0013      0.7862    0.1673

       68.595         0.786     0.167 dielectric  constant
 
 w=    86.442     0.000
         0.8498    0.0248      0.0000    0.0006     -0.0000   -0.0009
        -0.0000   -0.0006      0.8499    0.0248      0.0000    0.0008
         0.0000    0.0009     -0.0000   -0.0008      0.8499    0.0248

       86.442         0.850     0.025 dielectric  constant
 
 w=   117.372     0.000
         0.9372    0.0016      0.0000    0.0003     -0.0000   -0.0005
        -0.0000   -0.0003      0.9372    0.0016      0.0000    0.0005
         0.0000    0.0005     -0.0000   -0.0005      0.9372    0.0016

      117.372         0.937     0.002 dielectric  constant
 
 w=   183.782     0.000
         0.9784    0.0002     -0.0000    0.0001     -0.0000   -0.0002
        -0.0000   -0.0001      0.9784    0.0002      0.0000    0.0002
         0.0000    0.0002     -0.0000   -0.0002      0.9784    0.0002

      183.782         0.978     0.000 dielectric  constant
 
  XI_LOCAL:  cpu time    0.1142: real time    0.1141

 1 + v P,  with REDUCIBLE POLARIZABILTY P=P_0 (1 -(v+f) P_0)^-1
 -------------------------------------
 w=     0.000     0.000
        32.4321   -0.0000     -0.0497    3.4498     -0.0428   -5.6309
        -0.0497   -3.4498     32.3550   -0.0000      0.0406    5.2445
        -0.0428    5.6309      0.0406   -5.2445     32.3455    0.0000

        0.000        32.378    -0.000 dielectric  constant
 
 w=     0.616     0.000
        20.2110   18.3091     -2.3701    1.8193      3.8015   -3.0536
         2.3163   -1.8868     20.1518   18.2583     -3.5404    2.8446
        -3.8477    2.9954      3.5838   -2.7895     20.1553   18.2500

        0.616        20.173    18.272 dielectric  constant
 
 w=     1.229     0.000
         4.6962   15.5331     -1.9370   -0.2092      3.1681    0.2716
         1.9422    0.1531      4.6931   15.4744     -2.9507   -0.2526
        -3.1636   -0.3199      2.9465    0.2981      4.6989   15.4748

        1.229         4.696    15.494 dielectric  constant
 
 w=     1.838     0.000
         1.7371    8.3137     -0.9312   -0.6190      1.5417    0.9764
         0.9487    0.5917      1.7531    8.2830     -1.4360   -0.9092
        -1.5266   -0.9998      1.4219    0.9312      1.7564    8.2847

        1.838         1.749     8.294 dielectric  constant
 
 w=     2.441     0.000
         2.8512    5.5160     -0.4491   -0.5084      0.7511    0.8134
         0.4637    0.4952      2.8655    5.5001     -0.6998   -0.7574
        -0.7386   -0.8248      0.6881    0.7681      2.8685    5.5022

        2.441         2.862     5.506 dielectric  constant
 
 w=     3.035     0.000
         3.5517    5.3259     -0.2430   -0.3783      0.4101    0.6086
         0.2539    0.3711      3.5639    5.3157     -0.3824   -0.5668
        -0.4008   -0.6147      0.3736    0.5726      3.5664    5.3192

        3.035         3.561     5.320 dielectric  constant
 
 w=     3.621     0.000
         2.9610    5.5704     -0.1456   -0.2853      0.2476    0.4603
         0.1537    0.2810      2.9728    5.5648     -0.2310   -0.4290
        -0.2406   -0.4640      0.2244    0.4325      2.9733    5.5696

        3.621         2.969     5.568 dielectric  constant
 
 w=     4.196     0.000
         2.1789    4.9626     -0.0938   -0.2217      0.1609    0.3582
         0.1001    0.2189      2.1884    4.9616     -0.1499   -0.3341
        -0.1554   -0.3606      0.1448    0.3364      2.1861    4.9655

        4.196         2.184     4.963 dielectric  constant
 
 w=     4.762     0.000
         2.2104    4.2646     -0.0637   -0.1769      0.1102    0.2862
         0.0687    0.1750      2.2168    4.2655     -0.1025   -0.2670
        -0.1059   -0.2879      0.0984    0.2686      2.2134    4.2667

        4.762         2.214     4.266 dielectric  constant
 
 w=     5.317     0.000
         2.5422    4.2480     -0.0453   -0.1444      0.0790    0.2339
         0.0493    0.1430      2.5460    4.2493     -0.0733   -0.2182
        -0.0755   -0.2351      0.0700    0.2193      2.5437    4.2482

        5.317         2.544     4.249 dielectric  constant
 
 w=     5.863     0.000
         2.4937    4.8222     -0.0336   -0.1207      0.0591    0.1956
         0.0370    0.1196      2.4965    4.8235     -0.0549   -0.1824
        -0.0562   -0.1965      0.0521    0.1832      2.4964    4.8214

        5.863         2.496     4.822 dielectric  constant
 
 w=     6.399     0.000
         1.5944    5.3480     -0.0255   -0.1033      0.0452    0.1676
         0.0284    0.1025      1.5953    5.3506     -0.0419   -0.1564
        -0.0427   -0.1682      0.0396    0.1570      1.5983    5.3496

        6.399         1.596     5.349 dielectric  constant
 
 w=     6.928     0.000
         0.5051    4.9657     -0.0187   -0.0902      0.0336    0.1464
         0.0211    0.0896      0.5017    4.9663     -0.0309   -0.1369
        -0.0315   -0.1470      0.0289    0.1374      0.5054    4.9698

        6.928         0.504     4.967 dielectric  constant
 
 w=     7.450     0.000
         0.0469    4.2748     -0.0120   -0.0794      0.0225    0.1289
         0.0142    0.0789      0.0441    4.2698     -0.0198   -0.1205
        -0.0206   -0.1293      0.0181    0.1209      0.0437    4.2763

        7.450         0.045     4.274 dielectric  constant
 
 w=     7.967     0.000
        -0.1582    3.8030     -0.0053   -0.0680      0.0113    0.1106
         0.0072    0.0676     -0.1556    3.7963     -0.0086   -0.1026
        -0.0097   -0.1109      0.0071    0.1029     -0.1608    3.8012

        7.967        -0.158     3.800 dielectric  constant
 
 w=     8.480     0.000
        -0.3203    3.3980     -0.0029   -0.0541      0.0070    0.0883
         0.0046    0.0538     -0.3144    3.3952     -0.0052   -0.0798
        -0.0055   -0.0886      0.0039    0.0801     -0.3211    3.3957

        8.480        -0.319     3.396 dielectric  constant
 
 w=     8.991     0.000
        -0.4529    3.0704     -0.0074   -0.0455      0.0138    0.0743
         0.0089    0.0453     -0.4488    3.0706     -0.0141   -0.0667
        -0.0125   -0.0745      0.0130    0.0670     -0.4540    3.0682

        8.991        -0.452     3.070 dielectric  constant
 
 w=     9.502     0.000
        -0.6277    2.6978     -0.0091   -0.0438      0.0162    0.0713
         0.0104    0.0436     -0.6242    2.6980     -0.0171   -0.0660
        -0.0150   -0.0715      0.0160    0.0662     -0.6280    2.6937

        9.502        -0.627     2.697 dielectric  constant
 
 w=    10.014     0.000
        -0.6560    2.2357     -0.0072   -0.0416      0.0131    0.0676
         0.0084    0.0414     -0.6530    2.2378     -0.0134   -0.0635
        -0.0120   -0.0678      0.0124    0.0637     -0.6537    2.2318

       10.014        -0.654     2.235 dielectric  constant
 
 w=    10.531     0.000
        -0.5260    1.9152     -0.0053   -0.0384      0.0099    0.0624
         0.0064    0.0383     -0.5255    1.9176     -0.0098   -0.0589
        -0.0090   -0.0626      0.0089    0.0590     -0.5227    1.9130

       10.531        -0.525     1.915 dielectric  constant
 
 w=    11.053     0.000
        -0.4710    1.7375     -0.0036   -0.0353      0.0071    0.0574
         0.0046    0.0352     -0.4718    1.7385     -0.0068   -0.0541
        -0.0062   -0.0575      0.0060    0.0543     -0.4677    1.7369

       11.053        -0.470     1.738 dielectric  constant
 
 w=    11.584     0.000
        -0.4960    1.5000     -0.0018   -0.0320      0.0041    0.0520
         0.0027    0.0319     -0.4968    1.4995     -0.0037   -0.0489
        -0.0033   -0.0521      0.0029    0.0490     -0.4935    1.5003

       11.584        -0.495     1.500 dielectric  constant
 
 w=    12.126     0.000
        -0.4381    1.1921     -0.0007   -0.0280      0.0021    0.0455
         0.0015    0.0278     -0.4378    1.1908     -0.0017   -0.0426
        -0.0015   -0.0456      0.0011    0.0427     -0.4365    1.1928

       12.126        -0.437     1.192 dielectric  constant
 
 w=    12.682     0.000
        -0.2749    0.9421     -0.0010   -0.0244      0.0025    0.0397
         0.0017    0.0243     -0.2738    0.9414     -0.0022   -0.0370
        -0.0019   -0.0398      0.0016    0.0371     -0.2740    0.9425

       12.682        -0.274     0.942 dielectric  constant
 
 w=    13.255     0.000
        -0.0991    0.7823     -0.0015   -0.0221      0.0034    0.0359
         0.0022    0.0220     -0.0981    0.7821     -0.0030   -0.0335
        -0.0028   -0.0360      0.0025    0.0335     -0.0982    0.7823

       13.255        -0.098     0.782 dielectric  constant
 
 w=    13.850     0.000
         0.0687    0.6614     -0.0017   -0.0203      0.0035    0.0331
         0.0023    0.0203      0.0695    0.6613     -0.0032   -0.0308
        -0.0030   -0.0332      0.0027    0.0309      0.0697    0.6615

       13.850         0.069     0.661 dielectric  constant
 
 w=    14.470     0.000
         0.2439    0.5917     -0.0016   -0.0187      0.0034    0.0305
         0.0022    0.0187      0.2447    0.5917     -0.0032   -0.0284
        -0.0029   -0.0306      0.0027    0.0284      0.2450    0.5918

[...]
     10     -32.7859     -32.8266     -32.8266     -32.8404       0.7461       1.0000
     11     -24.8405     -24.8637     -24.8587     -24.8647       0.7505       1.0000
     12     -24.8402     -24.8636     -24.8586     -24.8647       0.7516       1.0000
     13      -9.7550      -9.7643      -9.7641      -9.7670       0.7584       1.0000
     14      -9.7547      -9.7640      -9.7638      -9.7667       0.7573       1.0000
     15      -0.4632      -0.4671      -0.4667      -0.4678       0.7777       1.0000
     16      -0.4623      -0.4665      -0.4661      -0.4672       0.7777       1.0000
     17       1.3231       1.3208       1.3209       1.3204       0.7944       1.0000
     18       1.3244       1.3218       1.3219       1.3212       0.7944       1.0000
     19       7.7791       7.7839       7.7807       7.7811       0.8042       0.0000
     20       7.7793       7.7840       7.7808       7.7812       0.8042       0.0000
     21       9.0298       9.0358       9.0357       9.0372       0.7974       0.0000
     22       9.0300       9.0360       9.0358       9.0373       0.7973       0.0000
     23      10.6218      10.6286      10.6280      10.6297       0.7934       0.0000
     24      10.6222      10.6289      10.6283      10.6299       0.7933       0.0000
     25      11.9321      11.9393      11.9391      11.9409       0.7923       0.0000
     26      11.9324      11.9396      11.9394      11.9412       0.7923       0.0000
     27      13.1252      13.1333      13.1332      13.1353       0.7895       0.0000
     28      13.1253      13.1335      13.1333      13.1354       0.7894       0.0000
     29      14.7309      14.7396      14.7387      14.7408       0.7881       0.0000
     30      14.7310      14.7397      14.7388      14.7410       0.7881       0.0000
     31      16.0948      16.1034      16.1029      16.1050       0.7932       0.0000
     32      16.0949      16.1035      16.1030      16.1052       0.7933       0.0000
     33      16.5141      16.5225      16.5221      16.5241       0.7968       0.0000
     34      16.5143      16.5228      16.5223      16.5244       0.7967       0.0000
     35      18.8643      18.8723      18.8711      18.8727       0.8038       0.0000
     36      18.8653      18.8732      18.8720      18.8736       0.8039       0.0000
     37      20.2283      20.2382      20.2381      20.2408       0.7865       0.0000
     38      20.2288      20.2387      20.2386      20.2413       0.7865       0.0000
     39      21.8056      21.8160      21.8159      21.8188       0.7781       0.0000
     40      21.8068      21.8172      21.8171      21.8200       0.7781       0.0000
 

 k-point  61 :       0.0000   -0.2500   -0.2500
  band No. DFT-energies  QP-energies  QP-e(diag)   sigma(DFT)    Z            occupation

      1     -40.3118     -40.3641     -40.3634     -40.3826       0.7287       1.0000
      2     -40.3117     -40.3640     -40.3634     -40.3826       0.7288       1.0000
      3     -40.3025     -40.3532     -40.3528     -40.3711       0.7340       1.0000
      4     -40.3024     -40.3532     -40.3528     -40.3711       0.7341       1.0000
      5     -32.8038     -32.8457     -32.8456     -32.8604       0.7382       1.0000
      6     -32.8037     -32.8456     -32.8455     -32.8603       0.7383       1.0000
      7     -32.7925     -32.8337     -32.8336     -32.8477       0.7447       1.0000
      8     -32.7925     -32.8336     -32.8336     -32.8477       0.7447       1.0000
      9     -32.7872     -32.8279     -32.8278     -32.8418       0.7445       1.0000
     10     -32.7871     -32.8278     -32.8278     -32.8418       0.7446       1.0000
     11     -24.8873     -24.9105     -24.9029     -24.9080       0.7516       1.0000
     12     -24.8871     -24.9104     -24.9028     -24.9080       0.7521       1.0000
     13      -9.6416      -9.6508      -9.6509      -9.6539       0.7583       1.0000
     14      -9.6413      -9.6506      -9.6507      -9.6537       0.7579       1.0000
     15       0.1682       0.1652       0.1623       0.1607       0.7868       1.0000
     16       0.1702       0.1666       0.1637       0.1619       0.7869       1.0000
     17       1.7852       1.7833       1.7837       1.7834       0.7982       1.0000
     18       1.7880       1.7853       1.7857       1.7852       0.7981       1.0000
     19       6.8154       6.8190       6.8151       6.8150       0.8089       0.0000
     20       6.8161       6.8196       6.8156       6.8155       0.8088       0.0000
     21       8.8492       8.8554       8.8553       8.8568       0.8002       0.0000
     22       8.8493       8.8555       8.8554       8.8569       0.8001       0.0000
     23      10.1377      10.1445      10.1439      10.1455       0.7936       0.0000
     24      10.1381      10.1448      10.1442      10.1458       0.7936       0.0000
     25      12.4232      12.4309      12.4303      12.4322       0.7899       0.0000
     26      12.4237      12.4314      12.4308      12.4327       0.7899       0.0000
     27      13.5290      13.5369      13.5363      13.5382       0.7919       0.0000
     28      13.5296      13.5374      13.5368      13.5387       0.7919       0.0000
     29      15.5684      15.5772      15.5771      15.5793       0.7921       0.0000
     30      15.5694      15.5781      15.5779      15.5802       0.7920       0.0000
     31      16.2708      16.2799      16.2798      16.2821       0.7921       0.0000
     32      16.2709      16.2800      16.2799      16.2822       0.7920       0.0000
     33      16.3769      16.3856      16.3856      16.3879       0.7920       0.0000
     34      16.3774      16.3861      16.3861      16.3883       0.7921       0.0000
     35      16.4374      16.4462      16.4462      16.4485       0.7922       0.0000
     36      16.4378      16.4467      16.4466      16.4490       0.7923       0.0000
     37      17.2091      17.2166      17.2160      17.2177       0.8038       0.0000
     38      17.2098      17.2174      17.2168      17.2184       0.8038       0.0000
     39      21.4257      21.4348      21.4344      21.4368       0.7802       0.0000
     40      21.4281      21.4372      21.4368      21.4392       0.7801       0.0000
 

 k-point  62 :       0.2500   -0.2500   -0.2500
  band No. DFT-energies  QP-energies  QP-e(diag)   sigma(DFT)    Z            occupation

      1     -40.3141     -40.3662     -40.3655     -40.3848       0.7271       1.0000
      2     -40.3139     -40.3660     -40.3654     -40.3846       0.7278       1.0000
      3     -40.3092     -40.3605     -40.3600     -40.3788       0.7296       1.0000
      4     -40.3089     -40.3604     -40.3601     -40.3789       0.7309       1.0000
      5     -32.7989     -32.8406     -32.8404     -32.8551       0.7389       1.0000
      6     -32.7988     -32.8404     -32.8403     -32.8550       0.7399       1.0000
      7     -32.7928     -32.8338     -32.8336     -32.8477       0.7434       1.0000
      8     -32.7927     -32.8337     -32.8337     -32.8478       0.7439       1.0000
      9     -32.7903     -32.8315     -32.8314     -32.8457       0.7422       1.0000
     10     -32.7901     -32.8315     -32.8315     -32.8458       0.7432       1.0000
     11     -24.8177     -24.8407     -24.8369     -24.8432       0.7536       1.0000
     12     -24.8175     -24.8406     -24.8368     -24.8431       0.7535       1.0000
     13      -9.8057      -9.8152      -9.8148      -9.8178       0.7554       1.0000
     14      -9.8054      -9.8150      -9.8146      -9.8176       0.7551       1.0000
     15      -0.5972      -0.6013      -0.5996      -0.6002       0.7747       1.0000
     16      -0.5958      -0.6003      -0.5985      -0.5993       0.7753       1.0000
     17       1.0361       1.0335       1.0341       1.0336       0.7912       1.0000
     18       1.0377       1.0348       1.0353       1.0347       0.7917       1.0000
     19       7.3630       7.3678       7.3660       7.3667       0.8059       0.0000
     20       7.3632       7.3679       7.3661       7.3668       0.8053       0.0000
     21       8.9402       8.9463       8.9460       8.9475       0.7975       0.0000
     22       8.9403       8.9464       8.9462       8.9476       0.7976       0.0000
     23      10.6427      10.6495      10.6486      10.6501       0.7938       0.0000
     24      10.6428      10.6496      10.6487      10.6502       0.7936       0.0000
     25      12.3857      12.3932      12.3928      12.3947       0.7907       0.0000
     26      12.3859      12.3935      12.3930      12.3949       0.7907       0.0000
     27      14.1072      14.1152      14.1137      14.1154       0.7923       0.0000
     28      14.1083      14.1163      14.1148      14.1164       0.7921       0.0000
     29      15.8092      15.8178      15.8176      15.8198       0.7915       0.0000
     30      15.8098      15.8185      15.8182      15.8204       0.7913       0.0000
     31      16.3668      16.3759      16.3753      16.3776       0.7878       0.0000
     32      16.3672      16.3763      16.3756      16.3779       0.7874       0.0000
     33      17.7364      17.7442      17.7429      17.7445       0.8049       0.0000
     34      17.7373      17.7451      17.7438      17.7454       0.8047       0.0000
     35      18.6582      18.6665      18.6659      18.6679       0.7986       0.0000
     36      18.6629      18.6713      18.6706      18.6726       0.7983       0.0000
     37      20.3802      20.3901      20.3899      20.3925       0.7871       0.0000
     38      20.3825      20.3924      20.3922      20.3948       0.7872       0.0000
     39      20.7223      20.7321      20.7318      20.7344       0.7852       0.0000
     40      20.7330      20.7429      20.7426      20.7452       0.7845       0.0000
 

 k-point  63 :       0.5000   -0.2500   -0.2500
  band No. DFT-energies  QP-energies  QP-e(diag)   sigma(DFT)    Z            occupation

      1     -40.3072     -40.3586     -40.3581     -40.3766       0.7326       1.0000
      2     -40.3070     -40.3585     -40.3581     -40.3767       0.7330       1.0000
      3     -40.3014     -40.3522     -40.3518     -40.3700       0.7347       1.0000
      4     -40.3013     -40.3521     -40.3517     -40.3699       0.7349       1.0000
      5     -32.7940     -32.8352     -32.8350     -32.8493       0.7419       1.0000
      6     -32.7939     -32.8351     -32.8350     -32.8494       0.7419       1.0000
      7     -32.7902     -32.8309     -32.8307     -32.8445       0.7460       1.0000
      8     -32.7901     -32.8308     -32.8307     -32.8445       0.7464       1.0000
      9     -32.7860     -32.8267     -32.8266     -32.8404       0.7461       1.0000
     10     -32.7859     -32.8266     -32.8265     -32.8404       0.7463       1.0000
     11     -24.8405     -24.8637     -24.8587     -24.8647       0.7512       1.0000
     12     -24.8402     -24.8636     -24.8586     -24.8647       0.7512       1.0000
     13      -9.7550      -9.7643      -9.7641      -9.7669       0.7578       1.0000
     14      -9.7547      -9.7640      -9.7638      -9.7667       0.7577       1.0000
     15      -0.4634      -0.4673      -0.4669      -0.4679       0.7775       1.0000
     16      -0.4621      -0.4663      -0.4659      -0.4670       0.7778       1.0000
     17       1.3228       1.3206       1.3207       1.3202       0.7943       1.0000
     18       1.3247       1.3220       1.3221       1.3214       0.7945       1.0000
     19       7.7791       7.7838       7.7807       7.7810       0.8043       0.0000
     20       7.7793       7.7840       7.7808       7.7812       0.8041       0.0000
     21       9.0298       9.0358       9.0357       9.0372       0.7975       0.0000
     22       9.0300       9.0360       9.0359       9.0374       0.7972       0.0000
     23      10.6218      10.6286      10.6280      10.6297       0.7934       0.0000
     24      10.6222      10.6289      10.6283      10.6299       0.7933       0.0000
     25      11.9320      11.9392      11.9390      11.9408       0.7923       0.0000
     26      11.9325      11.9396      11.9394      11.9412       0.7922       0.0000
     27      13.1251      13.1333      13.1331      13.1352       0.7895       0.0000
     28      13.1254      13.1335      13.1334      13.1355       0.7894       0.0000
     29      14.7309      14.7396      14.7388      14.7409       0.7880       0.0000
     30      14.7310      14.7397      14.7388      14.7409       0.7881       0.0000
     31      16.0948      16.1033      16.1029      16.1050       0.7933       0.0000
     32      16.0950      16.1035      16.1031      16.1052       0.7932       0.0000
     33      16.5141      16.5225      16.5221      16.5241       0.7968       0.0000
     34      16.5143      16.5228      16.5223      16.5244       0.7967       0.0000
     35      18.8643      18.8723      18.8711      18.8727       0.8038       0.0000
     36      18.8653      18.8732      18.8720      18.8736       0.8039       0.0000
     37      20.2282      20.2381      20.2380      20.2406       0.7866       0.0000
     38      20.2290      20.2389      20.2388      20.2414       0.7864       0.0000
     39      21.8056      21.8160      21.8159      21.8188       0.7782       0.0000
     40      21.8068      21.8172      21.8171      21.8201       0.7780       0.0000
 

 k-point  64 :      -0.2500   -0.2500   -0.2500
  band No. DFT-energies  QP-energies  QP-e(diag)   sigma(DFT)    Z            occupation

      1     -40.3083     -40.3599     -40.3592     -40.3779       0.7312       1.0000
      2     -40.3083     -40.3599     -40.3592     -40.3779       0.7314       1.0000
      3     -40.3053     -40.3564     -40.3559     -40.3744       0.7328       1.0000
      4     -40.3051     -40.3563     -40.3558     -40.3743       0.7331       1.0000
      5     -32.7963     -32.8378     -32.8377     -32.8522       0.7408       1.0000
      6     -32.7962     -32.8377     -32.8376     -32.8521       0.7410       1.0000
      7     -32.7912     -32.8322     -32.8320     -32.8460       0.7455       1.0000
      8     -32.7911     -32.8321     -32.8320     -32.8460       0.7452       1.0000
      9     -32.7908     -32.8321     -32.8320     -32.8464       0.7408       1.0000
     10     -32.7907     -32.8320     -32.8320     -32.8465       0.7412       1.0000
     11     -24.9091     -24.9325     -24.9239     -24.9288       0.7515       1.0000
     12     -24.9090     -24.9324     -24.9238     -24.9287       0.7505       1.0000
     13      -9.5926      -9.6017      -9.6014      -9.6042       0.7600       1.0000
     14      -9.5923      -9.6015      -9.6012      -9.6040       0.7592       1.0000
     15       0.2598       0.2569       0.2542       0.2527       0.7877       1.0000
     16       0.2616       0.2582       0.2555       0.2539       0.7880       1.0000
     17       2.4947       2.4932       2.4935       2.4932       0.8038       1.0000
     18       2.4978       2.4955       2.4958       2.4953       0.8041       1.0000
     19       5.9456       5.9486       5.9429       5.9423       0.8129       0.0000
     20       5.9460       5.9490       5.9433       5.9426       0.8126       0.0000
     21      10.2465      10.2533      10.2528      10.2545       0.7934       0.0000
     22      10.2469      10.2536      10.2531      10.2548       0.7933       0.0000
     23      11.3862      11.3940      11.3936      11.3956       0.7894       0.0000
     24      11.3865      11.3942      11.3939      11.3958       0.7893       0.0000
     25      11.5828      11.5896      11.5894      11.5911       0.7954       0.0000
     26      11.5830      11.5898      11.5896      11.5913       0.7955       0.0000
     27      12.2209      12.2287      12.2286      12.2307       0.7870       0.0000
     28      12.2211      12.2289      12.2288      12.2309       0.7870       0.0000
     29      13.3182      13.3263      13.3261      13.3282       0.7906       0.0000
     30      13.3185      13.3265      13.3264      13.3284       0.7906       0.0000
     31      13.5632      13.5712      13.5711      13.5732       0.7910       0.0000
     32      13.5642      13.5722      13.5721      13.5741       0.7909       0.0000
     33      16.3155      16.3246      16.3243      16.3266       0.7925       0.0000
     34      16.3157      16.3248      16.3245      16.3268       0.7923       0.0000
     35      18.4655      18.4744      18.4742      18.4764       0.7936       0.0000
     36      18.4660      18.4748      18.4746      18.4768       0.7937       0.0000
     37      18.8028      18.8118      18.8115      18.8138       0.7927       0.0000
     38      18.8031      18.8123      18.8120      18.8143       0.7926       0.0000
     39      21.0991      21.1076      21.1068      21.1088       0.7888       0.0000
     40      21.1007      21.1092      21.1083      21.1104       0.7886       0.0000
 


--------------------------------------------------------------------------------------------------------



IMPORTANT INFORMATION: All symmetrisations will be switched off!
NOSYMM: (Re-)initialisation of all symmetry stuff for point group C_1.

   GW_DIAG:  cpu time    0.4147: real time    0.4155
    GWLOOP:  cpu time  637.0477: real time  637.0530
 writing wavefunctions
    --------------------------------------------
   GWTOTAL:  cpu time  637.5160: real time  637.6350
    4ORBIT:  cpu time    0.0000: real time    0.0000

 Spin-Orbit-Coupling matrix elements

 Ion:    1  E_soc:    -33.0399101
 l=   1
     0.0000000    -5.0930118    -5.0930119
    -5.0930118     0.0000000    -5.0930120
    -5.0930119    -5.0930120     0.0000000
 l=   2
     0.0000000    -0.0827549     0.0000000    -0.0827550    -0.3308398
    -0.0827549     0.0000000    -0.2481298    -0.0828000    -0.0827549
     0.0000000    -0.2481298     0.0000000    -0.2481298     0.0000000
    -0.0827550    -0.0828000    -0.2481298     0.0000000    -0.0827551
    -0.3308398    -0.0827549     0.0000000    -0.0827551     0.0000000
 l=   3
     0.0000000     0.0000000     0.0000000     0.0000000     0.0000000     0.0000000     0.0000000
     0.0000000     0.0000000     0.0000000     0.0000000     0.0000000     0.0000000     0.0000000
     0.0000000     0.0000000     0.0000000     0.0000000     0.0000000     0.0000000     0.0000000
     0.0000000     0.0000000     0.0000000     0.0000000     0.0000000     0.0000000     0.0000000
     0.0000000     0.0000000     0.0000000     0.0000000     0.0000000     0.0000000     0.0000000
     0.0000000     0.0000000     0.0000000     0.0000000     0.0000000     0.0000000     0.0000000
     0.0000000     0.0000000     0.0000000     0.0000000     0.0000000     0.0000000     0.0000000

 total amount of memory used by VASP MPI-rank0    88711. kBytes
=======================================================================

   base      :      30000. kBytes
   nonl-proj :       6508. kBytes
   fftplans  :      10640. kBytes
   grid      :      11239. kBytes
   one-center:         62. kBytes
   HF        :        129. kBytes
   nonlr-proj:        437. kBytes
   wavefun   :      29696. kBytes
   2eintegral:          0. kBytes
   fockhandle:          0. kBytes
   response  :          0. kBytes
   cacher    :          0. kBytes
 
  
  
 General timing and accounting informations for this job:
 ========================================================
  
                  Total CPU time used (sec):      641.135
                            User time (sec):      639.932
                          System time (sec):        1.203
                         Elapsed time (sec):      641.974
  
                   Maximum memory used (kb):      531408.
                   Average memory used (kb):           0.
  
                          Minor page faults:       125639
                          Major page faults:            0
                 Voluntary context switches:        14028
