   1   1   0   0
  0.6008441E+02  0.4396350E-09  0.4396350E-09  0.4396350E-09  0.1000000E-15
  1.000000000000000E-004
  CAR 
 Og_FCC                                  
     26.48942068   -231.24287953  301      3.68288587      1.00000000
   -231.243  0.0000E+00  0.0000E+00
   -230.384  0.0000E+00  0.0000E+00
   -229.525  0.0000E+00  0.0000E+00
   -228.666  0.0000E+00  0.0000E+00
   -227.806  0.0000E+00  0.0000E+00
   -226.947  0.0000E+00  0.0000E+00
   -226.088  0.0000E+00  0.0000E+00
   -225.229  0.0000E+00  0.0000E+00
   -224.370  0.0000E+00  0.0000E+00
   -223.511  0.0000E+00  0.0000E+00
   -222.652  0.0000E+00  0.0000E+00
   -221.793  0.0000E+00  0.0000E+00
   -220.934  0.0000E+00  0.0000E+00
   -220.074  0.0000E+00  0.0000E+00
   -219.215  0.0000E+00  0.2000E+01
   -218.356  0.0000E+00  0.2000E+01
   -217.497  0.0000E+00  0.2000E+01
   -216.638  0.0000E+00  0.2000E+01
   -215.779  0.0000E+00  0.2000E+01
   -214.920  0.0000E+00  0.2000E+01
   -214.061  0.0000E+00  0.2000E+01
   -213.202  0.0000E+00  0.2000E+01
   -212.343  0.0000E+00  0.2000E+01
   -211.483  0.0000E+00  0.2000E+01
   -210.624  0.0000E+00  0.2000E+01
   -209.765  0.0000E+00  0.2000E+01
   -208.906  0.0000E+00  0.2000E+01
   -208.047  0.0000E+00  0.2000E+01
   -207.188  0.0000E+00  0.2000E+01
   -206.329  0.0000E+00  0.2000E+01
   -205.470  0.0000E+00  0.2000E+01
   -204.611  0.0000E+00  0.2000E+01
   -203.751  0.0000E+00  0.2000E+01
   -202.892  0.0000E+00  0.2000E+01
   -202.033  0.0000E+00  0.2000E+01
   -201.174  0.0000E+00  0.2000E+01
   -200.315  0.0000E+00  0.2000E+01
   -199.456  0.0000E+00  0.2000E+01
   -198.597  0.0000E+00  0.2000E+01
   -197.738  0.0000E+00  0.2000E+01
   -196.879  0.0000E+00  0.2000E+01
   -196.019  0.0000E+00  0.2000E+01
   -195.160  0.0000E+00  0.2000E+01
   -194.301  0.0000E+00  0.2000E+01
   -193.442  0.0000E+00  0.2000E+01
   -192.583  0.0000E+00  0.2000E+01
   -191.724  0.0000E+00  0.2000E+01
   -190.865  0.0000E+00  0.2000E+01
   -190.006  0.0000E+00  0.2000E+01
   -189.147  0.0000E+00  0.2000E+01
   -188.287  0.0000E+00  0.2000E+01
   -187.428  0.0000E+00  0.2000E+01
   -186.569  0.0000E+00  0.2000E+01
   -185.710  0.0000E+00  0.2000E+01
   -184.851  0.0000E+00  0.2000E+01
   -183.992  0.0000E+00  0.2000E+01
   -183.133  0.0000E+00  0.2000E+01
   -182.274  0.0000E+00  0.2000E+01
   -181.415  0.0000E+00  0.2000E+01
   -180.556  0.0000E+00  0.2000E+01
   -179.696  0.0000E+00  0.2000E+01
   -178.837  0.0000E+00  0.2000E+01
   -177.978  0.0000E+00  0.2000E+01
   -177.119  0.0000E+00  0.2000E+01
   -176.260  0.0000E+00  0.2000E+01
   -175.401  0.0000E+00  0.2000E+01
   -174.542  0.0000E+00  0.2000E+01
   -173.683  0.0000E+00  0.2000E+01
   -172.824  0.0000E+00  0.2000E+01
   -171.964  0.0000E+00  0.2000E+01
   -171.105  0.0000E+00  0.2000E+01
   -170.246  0.0000E+00  0.2000E+01
   -169.387  0.0000E+00  0.2000E+01
   -168.528  0.0000E+00  0.2000E+01
   -167.669  0.0000E+00  0.2000E+01
   -166.810  0.0000E+00  0.2000E+01
   -165.951  0.0000E+00  0.2000E+01
   -165.092  0.0000E+00  0.2000E+01
   -164.232  0.0000E+00  0.2000E+01
   -163.373  0.0000E+00  0.2000E+01
   -162.514  0.0000E+00  0.2000E+01
   -161.655  0.0000E+00  0.2000E+01
   -160.796  0.0000E+00  0.2000E+01
   -159.937  0.0000E+00  0.2000E+01
   -159.078  0.0000E+00  0.2000E+01
   -158.219  0.0000E+00  0.2000E+01
   -157.360  0.0000E+00  0.2000E+01
   -156.501  0.0000E+00  0.2000E+01
   -155.641  0.0000E+00  0.2000E+01
   -154.782  0.0000E+00  0.2000E+01
   -153.923  0.0000E+00  0.2000E+01
   -153.064  0.0000E+00  0.2000E+01
   -152.205  0.0000E+00  0.2000E+01
   -151.346  0.0000E+00  0.2000E+01
   -150.487  0.0000E+00  0.2000E+01
   -149.628  0.0000E+00  0.2000E+01
   -148.769  0.0000E+00  0.2000E+01
   -147.909  0.0000E+00  0.2000E+01
   -147.050  0.0000E+00  0.2000E+01
   -146.191  0.0000E+00  0.2000E+01
   -145.332  0.0000E+00  0.2000E+01
   -144.473  0.0000E+00  0.2000E+01
   -143.614  0.0000E+00  0.2000E+01
   -142.755  0.0000E+00  0.2000E+01
   -141.896  0.0000E+00  0.2000E+01
   -141.037  0.0000E+00  0.2000E+01
   -140.177  0.0000E+00  0.2000E+01
   -139.318  0.0000E+00  0.2000E+01
   -138.459  0.0000E+00  0.2000E+01
   -137.600  0.0000E+00  0.3648E+01
   -136.741  0.0000E+00  0.4000E+01
   -135.882  0.0000E+00  0.4000E+01
   -135.023  0.0000E+00  0.4000E+01
   -134.164  0.0000E+00  0.4000E+01
   -133.305  0.0000E+00  0.4000E+01
   -132.445  0.0000E+00  0.4000E+01
   -131.586  0.0000E+00  0.4000E+01
   -130.727  0.0000E+00  0.4000E+01
   -129.868  0.0000E+00  0.4000E+01
   -129.009  0.0000E+00  0.4000E+01
   -128.150  0.0000E+00  0.4000E+01
   -127.291  0.0000E+00  0.4000E+01
   -126.432  0.0000E+00  0.4000E+01
   -125.573  0.0000E+00  0.4000E+01
   -124.714  0.0000E+00  0.4000E+01
   -123.854  0.0000E+00  0.4000E+01
   -122.995  0.0000E+00  0.4000E+01
   -122.136  0.0000E+00  0.4000E+01
   -121.277  0.0000E+00  0.4000E+01
   -120.418  0.0000E+00  0.4000E+01
   -119.559  0.0000E+00  0.4000E+01
   -118.700  0.0000E+00  0.4000E+01
   -117.841  0.0000E+00  0.4000E+01
   -116.982  0.0000E+00  0.4000E+01
   -116.122  0.0000E+00  0.4000E+01
   -115.263  0.0000E+00  0.4000E+01
   -114.404  0.0000E+00  0.4000E+01
   -113.545  0.0000E+00  0.4000E+01
   -112.686  0.0000E+00  0.4000E+01
   -111.827  0.0000E+00  0.4000E+01
   -110.968  0.0000E+00  0.4000E+01
   -110.109  0.0000E+00  0.4000E+01
   -109.250  0.0000E+00  0.4000E+01
   -108.390  0.0000E+00  0.4000E+01
   -107.531  0.0000E+00  0.4000E+01
   -106.672  0.0000E+00  0.4000E+01
   -105.813  0.0000E+00  0.4000E+01
   -104.954  0.0000E+00  0.4000E+01
   -104.095  0.0000E+00  0.4000E+01
   -103.236  0.0000E+00  0.4000E+01
   -102.377  0.0000E+00  0.4000E+01
   -101.518  0.0000E+00  0.4000E+01
   -100.659  0.0000E+00  0.4000E+01
    -99.799  0.0000E+00  0.4000E+01
    -98.940  0.0000E+00  0.4000E+01
    -98.081  0.0000E+00  0.4000E+01
    -97.222  0.0000E+00  0.4000E+01
    -96.363  0.0000E+00  0.4000E+01
    -95.504  0.0000E+00  0.4000E+01
    -94.645  0.0000E+00  0.4000E+01
    -93.786  0.0000E+00  0.4000E+01
    -92.927  0.0000E+00  0.4000E+01
    -92.067  0.0000E+00  0.4000E+01
    -91.208  0.0000E+00  0.4000E+01
    -90.349  0.0000E+00  0.4000E+01
    -89.490  0.0000E+00  0.8000E+01
    -88.631  0.0000E+00  0.8000E+01
    -87.772  0.0000E+00  0.8000E+01
    -86.913  0.0000E+00  0.8000E+01
    -86.054  0.0000E+00  0.8000E+01
    -85.195  0.0000E+00  0.8000E+01
    -84.335  0.0000E+00  0.8000E+01
    -83.476  0.0000E+00  0.8000E+01
    -82.617  0.0000E+00  0.8000E+01
    -81.758  0.0000E+00  0.8000E+01
    -80.899  0.0000E+00  0.8000E+01
    -80.040  0.0000E+00  0.8000E+01
    -79.181  0.0000E+00  0.8000E+01
    -78.322  0.0000E+00  0.8000E+01
    -77.463  0.0000E+00  0.8000E+01
    -76.603  0.0000E+00  0.8000E+01
    -75.744  0.0000E+00  0.8000E+01
    -74.885  0.0000E+00  0.8000E+01
    -74.026  0.0000E+00  0.8000E+01
    -73.167  0.0000E+00  0.8000E+01
    -72.308  0.0000E+00  0.8000E+01
    -71.449  0.0000E+00  0.8000E+01
    -70.590  0.0000E+00  0.8000E+01
    -69.731  0.0000E+00  0.8000E+01
    -68.872  0.0000E+00  0.8000E+01
    -68.012  0.0000E+00  0.8000E+01
    -67.153  0.0000E+00  0.8000E+01
    -66.294  0.0000E+00  0.8000E+01
    -65.435  0.0000E+00  0.8000E+01
    -64.576  0.0000E+00  0.8000E+01
    -63.717  0.0000E+00  0.8000E+01
    -62.858  0.0000E+00  0.8000E+01
    -61.999  0.0000E+00  0.8000E+01
    -61.140  0.0000E+00  0.8000E+01
    -60.280  0.0000E+00  0.8000E+01
    -59.421  0.0000E+00  0.8000E+01
    -58.562  0.0000E+00  0.8000E+01
    -57.703  0.0000E+00  0.8000E+01
    -56.844  0.0000E+00  0.8000E+01
    -55.985  0.0000E+00  0.8000E+01
    -55.126  0.0000E+00  0.8000E+01
    -54.267  0.0000E+00  0.8000E+01
    -53.408  0.0000E+00  0.8000E+01
    -52.548  0.0000E+00  0.8000E+01
    -51.689  0.0000E+00  0.8000E+01
    -50.830  0.0000E+00  0.8000E+01
    -49.971  0.0000E+00  0.8000E+01
    -49.112  0.0000E+00  0.8000E+01
    -48.253  0.0000E+00  0.8000E+01
    -47.394  0.0000E+00  0.8000E+01
    -46.535  0.0000E+00  0.8000E+01
    -45.676  0.0000E+00  0.8000E+01
    -44.817  0.0000E+00  0.8000E+01
    -43.957  0.0000E+00  0.8000E+01
    -43.098  0.0000E+00  0.8000E+01
    -42.239  0.0000E+00  0.8000E+01
    -41.380  0.0000E+00  0.8000E+01
    -40.521  0.0000E+00  0.8000E+01
    -39.662  0.0000E+00  0.8000E+01
    -38.803  0.0000E+00  0.8000E+01
    -37.944  0.0000E+00  0.8000E+01
    -37.085  0.0000E+00  0.8000E+01
    -36.225  0.0000E+00  0.8000E+01
    -35.366  0.0000E+00  0.8000E+01
    -34.507  0.0000E+00  0.8000E+01
    -33.648  0.0000E+00  0.8000E+01
    -32.789  0.0000E+00  0.1200E+02
    -31.930  0.0000E+00  0.1200E+02
    -31.071  0.0000E+00  0.1200E+02
    -30.212  0.0000E+00  0.1200E+02
    -29.353  0.0000E+00  0.1200E+02
    -28.493  0.0000E+00  0.1200E+02
    -27.634  0.0000E+00  0.1200E+02
    -26.775  0.0000E+00  0.1200E+02
    -25.916  0.0000E+00  0.1800E+02
    -25.057  0.0000E+00  0.1800E+02
    -24.198  0.0000E+00  0.1800E+02
    -23.339  0.0000E+00  0.1800E+02
    -22.480  0.0000E+00  0.1800E+02
    -21.621  0.0000E+00  0.1800E+02
    -20.762  0.0000E+00  0.2000E+02
    -19.902  0.0000E+00  0.2000E+02
    -19.043  0.0000E+00  0.2000E+02
    -18.184  0.0000E+00  0.2000E+02
    -17.325  0.0000E+00  0.2000E+02
    -16.466  0.0000E+00  0.2000E+02
    -15.607  0.0000E+00  0.2000E+02
    -14.748  0.0000E+00  0.2000E+02
    -13.889  0.0000E+00  0.2000E+02
    -13.030  0.0000E+00  0.2000E+02
    -12.170  0.0000E+00  0.2000E+02
    -11.311  0.0000E+00  0.2000E+02
    -10.452  0.0000E+00  0.2000E+02
     -9.593  0.0000E+00  0.2000E+02
     -8.734  0.0000E+00  0.2000E+02
     -7.875  0.0000E+00  0.2000E+02
     -7.016  0.0000E+00  0.2000E+02
     -6.157  0.0000E+00  0.2000E+02
     -5.298  0.0000E+00  0.2000E+02
     -4.438  0.0000E+00  0.2000E+02
     -3.579  0.2587E+00  0.2175E+02
     -2.720  0.0000E+00  0.2200E+02
     -1.861  0.0000E+00  0.2200E+02
     -1.002  0.0000E+00  0.2200E+02
     -0.143  0.0000E+00  0.2200E+02
      0.716  0.0000E+00  0.2200E+02
      1.575  0.0000E+00  0.2386E+02
      2.434  0.0000E+00  0.2491E+02
      3.294  0.3349E-01  0.2586E+02
      4.153  0.0000E+00  0.2601E+02
      5.012  0.0000E+00  0.2601E+02
      5.871  0.2827E-12  0.2608E+02
      6.730  0.0000E+00  0.2639E+02
      7.589  0.0000E+00  0.2756E+02
      8.448  0.0000E+00  0.2831E+02
      9.307  0.0000E+00  0.2981E+02
     10.166  0.0000E+00  0.3047E+02
     11.025  0.0000E+00  0.3220E+02
     11.885  0.0000E+00  0.3369E+02
     12.744  0.3498E-01  0.3470E+02
     13.603  0.0000E+00  0.3561E+02
     14.462  0.0000E+00  0.3594E+02
     15.321  0.0000E+00  0.3600E+02
     16.180  0.0000E+00  0.3600E+02
     17.039  0.0000E+00  0.3600E+02
     17.898  0.0000E+00  0.3600E+02
     18.757  0.0000E+00  0.3600E+02
     19.617  0.0000E+00  0.3600E+02
     20.476  0.0000E+00  0.3600E+02
     21.335  0.0000E+00  0.3600E+02
     22.194  0.0000E+00  0.3600E+02
     23.053  0.0000E+00  0.3600E+02
     23.912  0.0000E+00  0.3600E+02
     24.771  0.0000E+00  0.3600E+02
     25.630  0.0000E+00  0.3600E+02
     26.489  0.0000E+00  0.3600E+02
