    1    1  999    1
  0.6021489E+02  0.4399530E-09  0.4399530E-09  0.4399530E-09  0.1000000E-15
  1.000000000000000E-004
  CAR 
 Og_FCC                                  
     18    365     28
 
  0.0000000E+00  0.0000000E+00  0.0000000E+00  0.1371742E-02
    1      -31.035923   1.000000
    2      -31.035913   1.000000
    3      -31.035898   1.000000
    4      -31.035890   1.000000
    5      -24.347181   1.000000
    6      -24.347157   1.000000
    7      -24.343568   1.000000
    8      -24.343561   1.000000
    9      -24.343529   1.000000
   10      -24.343521   1.000000
   11      -20.713422   1.000000
   12      -20.712910   1.000000
   13       -6.959864   1.000000
   14       -6.959725   1.000000
   15        3.144717   0.864138
   16        3.144807   0.863631
   17        3.144898   0.863123
   18        3.144990   0.862607
   19        3.382046  -0.011417
   20        3.382378  -0.011307
   21       10.505290   0.000000
   22       10.505407   0.000000
   23       10.505513   0.000000
   24       10.505630   0.000000
   25       10.934106   0.000000
   26       10.934246   0.000000
   27       11.081004   0.000000
   28       11.081199   0.000000
 
  0.1111111E+00  0.1031040E-17 -0.6938894E-17  0.2743484E-02
    1      -31.035950   1.000000
    2      -31.035942   1.000000
    3      -31.035683   1.000000
    4      -31.035658   1.000000
    5      -24.346516   1.000000
    6      -24.346484   1.000000
    7      -24.343699   1.000000
    8      -24.343668   1.000000
    9      -24.342735   1.000000
   10      -24.342704   1.000000
   11      -20.701242   1.000000
   12      -20.700729   1.000000
   13       -7.003803   1.000000
   14       -7.003668   1.000000
   15        2.110808   1.000000
   16        2.110905   1.000000
   17        3.075852   1.035098
   18        3.076106   1.035056
   19        4.479301  -0.000000
   20        4.479455  -0.000000
   21        9.795016   0.000000
   22        9.795262   0.000000
   23       10.625106   0.000000
   24       10.625391   0.000000
   25       10.940896   0.000000
   26       10.941184   0.000000
   27       12.196865   0.000000
   28       12.331792   0.000000
 
  0.2222222E+00 -0.1181571E-16  0.0000000E+00  0.2743484E-02
    1      -31.035738   1.000000
    2      -31.035729   1.000000
    3      -31.034821   1.000000
    4      -31.034797   1.000000
    5      -24.345442   1.000000
    6      -24.345379   1.000000
    7      -24.343178   1.000000
    8      -24.343146   1.000000
    9      -24.340565   1.000000
   10      -24.340534   1.000000
   11      -20.670093   1.000000
   12      -20.669579   1.000000
   13       -7.115065   1.000000
   14       -7.114939   1.000000
   15        1.177140   1.000000
   16        1.177259   1.000000
   17        2.911657   1.000247
   18        2.911898   1.000250
   19        5.442257  -0.000000
   20        5.442467  -0.000000
   21        9.517925   0.000000
   22        9.518085   0.000000
   23       10.607617   0.000000
   24       10.607876   0.000000
   25       11.005057   0.000000
   26       11.005337   0.000000
   27       11.641227   0.000000
   28       11.652372   0.000000
 
  0.3333333E+00  0.3093120E-17  0.0000000E+00  0.2743484E-02
    1      -31.035498   1.000000
    2      -31.035490   1.000000
    3      -31.033849   1.000000
    4      -31.033825   1.000000
    5      -24.345663   1.000000
    6      -24.345601   1.000000
    7      -24.341132   1.000000
    8      -24.341104   1.000000
    9      -24.338095   1.000000
   10      -24.338064   1.000000
   11      -20.634196   1.000000
   12      -20.633679   1.000000
   13       -7.242220   1.000000
   14       -7.242104   1.000000
   15        0.525162   1.000000
   16        0.525296   1.000000
   17        2.739862   1.000000
   18        2.740091   1.000000
   19        5.843726  -0.000000
   20        5.844019  -0.000000
   21       10.033426   0.000000
   22       10.033456   0.000000
   23       10.247882   0.000000
   24       10.248143   0.000000
   25       10.685388   0.000000
   26       10.685644   0.000000
   27       11.154268   0.000000
   28       11.154448   0.000000
 
  0.4444444E+00 -0.2363142E-16  0.0000000E+00  0.2743484E-02
    1      -31.035388   1.000000
    2      -31.035379   1.000000
    3      -31.033236   1.000000
    4      -31.033212   1.000000
    5      -24.346039   1.000000
    6      -24.345979   1.000000
    7      -24.339606   1.000000
    8      -24.339581   1.000000
    9      -24.336498   1.000000
   10      -24.336468   1.000000
   11      -20.610497   1.000000
   12      -20.609980   1.000000
   13       -7.325616   1.000000
   14       -7.325507   1.000000
   15        0.192165   1.000000
   16        0.192307   1.000000
   17        2.634867   1.000000
   18        2.635089   1.000000
   19        5.893512  -0.000000
   20        5.893844  -0.000000
   21        9.993274   0.000000
   22        9.993539   0.000000
   23       10.280120   0.000000
   24       10.280153   0.000000
   25       10.413244   0.000000
   26       10.413482   0.000000
   27       11.667948   0.000000
   28       11.668031   0.000000
 
  0.0000000E+00  0.1111111E+00  0.0000000E+00  0.2743484E-02
    1      -31.035950   1.000000
    2      -31.035942   1.000000
    3      -31.035680   1.000000
    4      -31.035661   1.000000
    5      -24.346510   1.000000
    6      -24.346490   1.000000
    7      -24.343692   1.000000
    8      -24.343675   1.000000
    9      -24.342724   1.000000
   10      -24.342715   1.000000
   11      -20.701242   1.000000
   12      -20.700729   1.000000
   13       -7.003805   1.000000
   14       -7.003666   1.000000
   15        2.110827   1.000000
   16        2.110885   1.000000
   17        3.075974   1.035078
   18        3.075984   1.035076
   19        4.479310  -0.000000
   20        4.479447  -0.000000
   21        9.795010   0.000000
   22        9.795268   0.000000
   23       10.625225   0.000000
   24       10.625270   0.000000
   25       10.941016   0.000000
   26       10.941067   0.000000
   27       12.151138   0.000000
   28       12.240129   0.000000
 
  0.1111111E+00  0.1111111E+00  0.0000000E+00  0.2743484E-02
    1      -31.035861   1.000000
    2      -31.035855   1.000000
    3      -31.035658   1.000000
    4      -31.035637   1.000000
    5      -24.346382   1.000000
    6      -24.346353   1.000000
    7      -24.343204   1.000000
    8      -24.343172   1.000000
    9      -24.342885   1.000000
   10      -24.342851   1.000000
   11      -20.697185   1.000000
   12      -20.696672   1.000000
   13       -7.017837   1.000000
   14       -7.017700   1.000000
   15        2.008533   1.000000
   16        2.008640   1.000000
   17        2.915029   1.000294
   18        2.915225   1.000297
   19        4.759549  -0.000000
   20        4.759671  -0.000000
   21        9.506146   0.000000
   22        9.506419   0.000000
   23       10.655301   0.000000
   24       10.655530   0.000000
   25       11.223010   0.000000
   26       11.223263   0.000000
   27       11.409270   0.000000
   28       11.413116   0.000000
 
  0.2222222E+00  0.1111111E+00  0.2775558E-16  0.2743484E-02
    1      -31.035620   1.000000
    2      -31.035613   1.000000
    3      -31.034969   1.000000
    4      -31.034946   1.000000
    5      -24.345387   1.000000
    6      -24.345335   1.000000
    7      -24.343122   1.000000
    8      -24.343100   1.000000
    9      -24.340897   1.000000
   10      -24.340871   1.000000
   11      -20.672364   1.000000
   12      -20.671850   1.000000
   13       -7.104986   1.000000
   14       -7.104858   1.000000
   15        1.312057   1.000000
   16        1.312177   1.000000
   17        2.714810   1.000000
   18        2.715031   1.000000
   19        5.624527  -0.000000
   20        5.624667  -0.000000
   21        9.110510   0.000000
   22        9.110753   0.000000
   23       10.213934   0.000000
   24       10.214165   0.000000
   25       11.103425   0.000000
   26       11.103620   0.000000
   27       11.754277   0.000000
   28       11.755647   0.000000
 
  0.3333333E+00  0.1111111E+00  0.0000000E+00  0.2743484E-02
    1      -31.035357   1.000000
    2      -31.035350   1.000000
    3      -31.034073   1.000000
    4      -31.034048   1.000000
    5      -24.345006   1.000000
    6      -24.344939   1.000000
    7      -24.341818   1.000000
    8      -24.341786   1.000000
    9      -24.338478   1.000000
   10      -24.338453   1.000000
   11      -20.638046   1.000000
   12      -20.637530   1.000000
   13       -7.224563   1.000000
   14       -7.224445   1.000000
   15        0.668376   1.000000
   16        0.668501   1.000000
   17        2.496558   1.000000
   18        2.496762   1.000000
   19        6.212898   0.000000
   20        6.213110   0.000000
   21        9.349962   0.000000
   22        9.350045   0.000000
   23        9.634737   0.000000
   24        9.634927   0.000000
   25       10.972159   0.000000
   26       10.972410   0.000000
   27       12.377997   0.000000
   28       12.471821   0.000000
 
  0.4444444E+00  0.1111111E+00  0.0000000E+00  0.2743484E-02
    1      -31.035172   1.000000
    2      -31.035164   1.000000
    3      -31.033375   1.000000
    4      -31.033350   1.000000
    5      -24.345255   1.000000
    6      -24.345192   1.000000
    7      -24.339911   1.000000
    8      -24.339882   1.000000
    9      -24.336878   1.000000
   10      -24.336850   1.000000
   11      -20.610233   1.000000
   12      -20.609715   1.000000
   13       -7.320466   1.000000
   14       -7.320355   1.000000
   15        0.269428   1.000000
   16        0.269556   1.000000
   17        2.327944   1.000000
   18        2.328134   1.000000
   19        6.367702   0.000000
   20        6.367972   0.000000
   21        9.098627   0.000000
   22        9.098837   0.000000
   23       10.350996   0.000000
   24       10.351143   0.000000
   25       10.834416   0.000000
   26       10.834533   0.000000
   27       12.126649   0.000000
   28       12.127247   0.000000
 
 -0.4444444E+00  0.1111111E+00 -0.2775558E-16  0.2743484E-02
    1      -31.035088   1.000000
    2      -31.035079   1.000000
    3      -31.033137   1.000000
    4      -31.033112   1.000000
    5      -24.345316   1.000000
    6      -24.345255   1.000000
    7      -24.339194   1.000000
    8      -24.339170   1.000000
    9      -24.336567   1.000000
   10      -24.336537   1.000000
   11      -20.602279   1.000000
   12      -20.601761   1.000000
   13       -7.347653   1.000000
   14       -7.347543   1.000000
   15        0.166006   1.000000
   16        0.166131   1.000000
   17        2.279676   1.000000
   18        2.279861   1.000000
   19        6.394825   0.000000
   20        6.395112   0.000000
   21        9.029685   0.000000
   22        9.029890   0.000000
   23       10.360362   0.000000
   24       10.360646   0.000000
   25       11.193749   0.000000
   26       11.193812   0.000000
   27       12.291709   0.000000
   28       12.292841   0.000000
 
 -0.3333333E+00  0.1111111E+00  0.2775558E-16  0.2743484E-02
    1      -31.035246   1.000000
    2      -31.035236   1.000000
    3      -31.033577   1.000000
    4      -31.033550   1.000000
    5      -24.345071   1.000000
    6      -24.345011   1.000000
    7      -24.340457   1.000000
    8      -24.340442   1.000000
    9      -24.337445   1.000000
   10      -24.337415   1.000000
   11      -20.618115   1.000000
   12      -20.617598   1.000000
   13       -7.293671   1.000000
   14       -7.293556   1.000000
   15        0.367401   1.000000
   16        0.367517   1.000000
   17        2.374772   1.000000
   18        2.374959   1.000000
   19        6.377262   0.000000
   20        6.377528   0.000000
   21        9.257478   0.000000
   22        9.257666   0.000000
   23       10.268507   0.000000
   24       10.268573   0.000000
   25       10.599260   0.000000
   26       10.599466   0.000000
   27       12.363243   0.000000
   28       12.590939   0.000000
 
 -0.2222222E+00  0.1111111E+00  0.0000000E+00  0.2743484E-02
    1      -31.035461   1.000000
    2      -31.035451   1.000000
    3      -31.034384   1.000000
    4      -31.034357   1.000000
    5      -24.344688   1.000000
    6      -24.344625   1.000000
    7      -24.342741   1.000000
    8      -24.342725   1.000000
    9      -24.339303   1.000000
   10      -24.339273   1.000000
   11      -20.649980   1.000000
   12      -20.649464   1.000000
   13       -7.183756   1.000000
   14       -7.183631   1.000000
   15        0.849437   1.000000
   16        0.849538   1.000000
   17        2.590491   1.000000
   18        2.590678   1.000000
   19        6.077442   0.000000
   20        6.077638   0.000000
   21        9.341266   0.000000
   22        9.341372   0.000000
   23        9.990343   0.000000
   24        9.990490   0.000000
   25       10.833551   0.000000
   26       10.833855   0.000000
   27       11.786944   0.000000
   28       11.789772   0.000000
 
 -0.1111111E+00  0.1111111E+00  0.8153288E-17  0.2743484E-02
    1      -31.035779   1.000000
    2      -31.035770   1.000000
    3      -31.035238   1.000000
    4      -31.035213   1.000000
    5      -24.345499   1.000000
    6      -24.345471   1.000000
    7      -24.343704   1.000000
    8      -24.343675   1.000000
    9      -24.341494   1.000000
   10      -24.341469   1.000000
   11      -20.682732   1.000000
   12      -20.682219   1.000000
   13       -7.069398   1.000000
   14       -7.069263   1.000000
   15        1.523767   1.000000
   16        1.523846   1.000000
   17        2.867189   1.000020
   18        2.867347   1.000020
   19        5.265162  -0.000000
   20        5.265302  -0.000000
   21        9.382787   0.000000
   22        9.383023   0.000000
   23       10.550489   0.000000
   24       10.550639   0.000000
   25       11.047145   0.000000
   26       11.047421   0.000000
   27       11.627532   0.000000
   28       11.657619   0.000000
 
  0.3851860E-33  0.2222222E+00  0.1387779E-16  0.2743484E-02
    1      -31.035737   1.000000
    2      -31.035730   1.000000
    3      -31.034819   1.000000
    4      -31.034800   1.000000
    5      -24.345417   1.000000
    6      -24.345404   1.000000
    7      -24.343181   1.000000
    8      -24.343143   1.000000
    9      -24.340554   1.000000
   10      -24.340545   1.000000
   11      -20.670093   1.000000
   12      -20.669579   1.000000
   13       -7.115072   1.000000
   14       -7.114933   1.000000
   15        1.177165   1.000000
   16        1.177234   1.000000
   17        2.911772   1.000248
   18        2.911783   1.000248
   19        5.442263  -0.000000
   20        5.442461  -0.000000
   21        9.517913   0.000000
   22        9.518097   0.000000
   23       10.607732   0.000000
   24       10.607764   0.000000
   25       11.005152   0.000000
   26       11.005198   0.000000
   27       11.641704   0.000000
   28       11.660968   0.000000
 
  0.1111111E+00  0.2222222E+00  0.4163336E-16  0.2743484E-02
    1      -31.035620   1.000000
    2      -31.035613   1.000000
    3      -31.034967   1.000000
    4      -31.034949   1.000000
    5      -24.345374   1.000000
    6      -24.345348   1.000000
    7      -24.343124   1.000000
    8      -24.343098   1.000000
    9      -24.340895   1.000000
   10      -24.340872   1.000000
   11      -20.672365   1.000000
   12      -20.671850   1.000000
   13       -7.104991   1.000000
   14       -7.104854   1.000000
   15        1.312072   1.000000
   16        1.312161   1.000000
   17        2.714874   1.000000
   18        2.714967   1.000000
   19        5.624527  -0.000000
   20        5.624668  -0.000000
   21        9.110505   0.000000
   22        9.110757   0.000000
   23       10.213947   0.000000
   24       10.214152   0.000000
   25       11.103406   0.000000
   26       11.103637   0.000000
   27       11.754274   0.000000
   28       11.754645   0.000000
 
  0.2222222E+00  0.2222222E+00  0.2775558E-16  0.2743484E-02
    1      -31.035368   1.000000
    2      -31.035362   1.000000
    3      -31.034735   1.000000
    4      -31.034714   1.000000
    5      -24.345394   1.000000
    6      -24.345352   1.000000
    7      -24.342226   1.000000
    8      -24.342194   1.000000
    9      -24.339813   1.000000
   10      -24.339790   1.000000
   11      -20.655774   1.000000
   12      -20.655259   1.000000
   13       -7.159741   1.000000
   14       -7.159612   1.000000
   15        1.082884   1.000000
   16        1.082998   1.000000
   17        2.410701   1.000000
   18        2.410862   1.000000
   19        6.165060   0.000000
   20        6.165175   0.000000
   21        8.520178   0.000000
   22        8.520460   0.000000
   23        9.674938   0.000000
   24        9.675140   0.000000
   25       11.356656   0.000000
   26       11.356819   0.000000
   27       12.257171   0.000000
   28       12.257405   0.000000
 
  0.3333333E+00  0.2222222E+00  0.5551115E-16  0.2743484E-02
    1      -31.035071   1.000000
    2      -31.035064   1.000000
    3      -31.034081   1.000000
    4      -31.034058   1.000000
    5      -24.344824   1.000000
    6      -24.344766   1.000000
    7      -24.341699   1.000000
    8      -24.341670   1.000000
    9      -24.337560   1.000000
   10      -24.337542   1.000000
   11      -20.627847   1.000000
   12      -20.627330   1.000000
   13       -7.252729   1.000000
   14       -7.252608   1.000000
   15        0.671843   1.000000
   16        0.671957   1.000000
   17        2.132177   1.000000
   18        2.132346   1.000000
   19        6.628554   0.000000
   20        6.628698   0.000000
   21        8.382371   0.000000
   22        8.382599   0.000000
   23        9.296688   0.000000
   24        9.296858   0.000000
   25       11.663511   0.000000
   26       11.663631   0.000000
   27       12.816185   0.000000
   28       12.817468   0.000000
 
  0.4444444E+00  0.2222222E+00  0.5551115E-16  0.2743484E-02
    1      -31.034797   1.000000
    2      -31.034788   1.000000
    3      -31.033493   1.000000
    4      -31.033466   1.000000
    5      -24.344251   1.000000
    6      -24.344185   1.000000
    7      -24.340510   1.000000
    8      -24.340482   1.000000
    9      -24.336221   1.000000
   10      -24.336203   1.000000
   11      -20.601559   1.000000
   12      -20.601041   1.000000
   13       -7.339030   1.000000
   14       -7.338916   1.000000
   15        0.346493   1.000000
   16        0.346594   1.000000
   17        1.849767   1.000000
   18        1.849925   1.000000
   19        6.885994   0.000000
   20        6.886194   0.000000
   21        8.521858   0.000000
   22        8.521966   0.000000
   23        9.544346   0.000000
   24        9.544519   0.000000
   25       11.474463   0.000000
   26       11.474653   0.000000
   27       13.186933   0.000000
   28       13.208376   0.000000
 
 -0.4444444E+00  0.2222222E+00  0.0000000E+00  0.2743484E-02
    1      -31.034656   1.000000
    2      -31.034645   1.000000
    3      -31.033203   1.000000
    4      -31.033175   1.000000
    5      -24.343954   1.000000
    6      -24.343890   1.000000
    7      -24.339000   1.000000
    8      -24.338971   1.000000
    9      -24.336588   1.000000
   10      -24.336566   1.000000
   11      -20.589386   1.000000
   12      -20.588868   1.000000
   13       -7.378431   1.000000
   14       -7.378318   1.000000
   15        0.203740   1.000000
   16        0.203822   1.000000
   17        1.700222   1.000000
   18        1.700382   1.000000
   19        7.086663   0.000000
   20        7.086911   0.000000
   21        8.428698   0.000000
   22        8.428852   0.000000
   23       10.544206   0.000000
   24       10.544315   0.000000
   25       11.286572   0.000000
   26       11.286692   0.000000
   27       12.556843   0.000000
   28       12.557338   0.000000
 
 -0.3333333E+00  0.2222222E+00  0.2775558E-16  0.2743484E-02
    1      -31.034716   1.000000
    2      -31.034704   1.000000
    3      -31.033356   1.000000
    4      -31.033326   1.000000
    5      -24.343688   1.000000
    6      -24.343628   1.000000
    7      -24.339264   1.000000
    8      -24.339247   1.000000
    9      -24.337480   1.000000
   10      -24.337452   1.000000
   11      -20.597208   1.000000
   12      -20.596689   1.000000
   13       -7.354065   1.000000
   14       -7.353948   1.000000
   15        0.264083   1.000000
   16        0.264157   1.000000
   17        1.783496   1.000000
   18        1.783666   1.000000
   19        7.269728   0.000000
   20        7.269988   0.000000
   21        8.445037   0.000000
   22        8.445184   0.000000
   23       10.317775   0.000000
   24       10.317829   0.000000
   25       11.253808   0.000000
   26       11.254004   0.000000
   27       12.766783   0.000000
   28       12.856766   0.000000
 
 -0.2222222E+00  0.2222222E+00  0.7312171E-17  0.2743484E-02
    1      -31.035063   1.000000
    2      -31.035052   1.000000
    3      -31.033827   1.000000
    4      -31.033799   1.000000
    5      -24.343598   1.000000
    6      -24.343552   1.000000
    7      -24.341709   1.000000
    8      -24.341686   1.000000
    9      -24.337984   1.000000
   10      -24.337955   1.000000
   11      -20.621224   1.000000
   12      -20.620707   1.000000
   13       -7.277769   1.000000
   14       -7.277643   1.000000
   15        0.504393   1.000000
   16        0.504470   1.000000
   17        2.109663   1.000000
   18        2.109828   1.000000
   19        6.965665   0.000000
   20        6.965860   0.000000
   21        8.821492   0.000000
   22        8.821587   0.000000
   23        9.694205   0.000000
   24        9.694257   0.000000
   25       11.053301   0.000000
   26       11.053538   0.000000
   27       11.857109   0.000000
   28       11.857428   0.000000
 
 -0.1111111E+00  0.2222222E+00  0.2081668E-16  0.2743484E-02
    1      -31.035460   1.000000
    2      -31.035452   1.000000
    3      -31.034382   1.000000
    4      -31.034359   1.000000
    5      -24.344663   1.000000
    6      -24.344649   1.000000
    7      -24.342759   1.000000
    8      -24.342707   1.000000
    9      -24.339300   1.000000
   10      -24.339276   1.000000
   11      -20.649980   1.000000
   12      -20.649464   1.000000
   13       -7.183760   1.000000
   14       -7.183626   1.000000
   15        0.849451   1.000000
   16        0.849523   1.000000
   17        2.590528   1.000000
   18        2.590641   1.000000
   19        6.077445   0.000000
   20        6.077635   0.000000
   21        9.341259   0.000000
   22        9.341378   0.000000
   23        9.990348   0.000000
   24        9.990486   0.000000
   25       10.833569   0.000000
   26       10.833840   0.000000
   27       11.786741   0.000000
   28       11.787703   0.000000
 
  0.7703720E-33  0.3333333E+00  0.4163336E-16  0.2743484E-02
    1      -31.035497   1.000000
    2      -31.035490   1.000000
    3      -31.033847   1.000000
    4      -31.033828   1.000000
    5      -24.345637   1.000000
    6      -24.345627   1.000000
    7      -24.341138   1.000000
    8      -24.341098   1.000000
    9      -24.338084   1.000000
   10      -24.338075   1.000000
   11      -20.634196   1.000000
   12      -20.633679   1.000000
   13       -7.242231   1.000000
   14       -7.242093   1.000000
   15        0.525191   1.000000
   16        0.525266   1.000000
   17        2.739970   1.000000
   18        2.739982   1.000000
   19        5.843732  -0.000000
   20        5.844015  -0.000000
   21       10.033408   0.000000
   22       10.033474   0.000000
   23       10.248000   0.000000
   24       10.248027   0.000000
   25       10.685499   0.000000
   26       10.685535   0.000000
   27       11.154260   0.000000
   28       11.154442   0.000000
 
  0.1111111E+00  0.3333333E+00  0.2775558E-16  0.2743484E-02
    1      -31.035357   1.000000
    2      -31.035350   1.000000
    3      -31.034070   1.000000
    4      -31.034051   1.000000
    5      -24.344980   1.000000
    6      -24.344965   1.000000
    7      -24.341818   1.000000
    8      -24.341785   1.000000
    9      -24.338478   1.000000
   10      -24.338453   1.000000
   11      -20.638046   1.000000
   12      -20.637530   1.000000
   13       -7.224572   1.000000
   14       -7.224436   1.000000
   15        0.668397   1.000000
   16        0.668479   1.000000
   17        2.496639   1.000000
   18        2.496681   1.000000
   19        6.212900   0.000000
   20        6.213110   0.000000
   21        9.349956   0.000000
   22        9.350051   0.000000
   23        9.634736   0.000000
   24        9.634928   0.000000
   25       10.972196   0.000000
   26       10.972409   0.000000
   27       12.379439   0.000000
   28       12.511958   0.000000
 
  0.2222222E+00  0.3333333E+00  0.2775558E-16  0.2743484E-02
    1      -31.035071   1.000000
    2      -31.035064   1.000000
    3      -31.034079   1.000000
    4      -31.034060   1.000000
    5      -24.344813   1.000000
    6      -24.344777   1.000000
    7      -24.341700   1.000000
    8      -24.341669   1.000000
    9      -24.337566   1.000000
   10      -24.337537   1.000000
   11      -20.627847   1.000000
   12      -20.627330   1.000000
   13       -7.252734   1.000000
   14       -7.252603   1.000000
   15        0.671850   1.000000
   16        0.671950   1.000000
   17        2.132214   1.000000
   18        2.132310   1.000000
   19        6.628550   0.000000
   20        6.628702   0.000000
   21        8.382365   0.000000
   22        8.382605   0.000000
   23        9.296697   0.000000
   24        9.296849   0.000000
   25       11.663488   0.000000
   26       11.663658   0.000000
   27       12.816168   0.000000
   28       12.816595   0.000000
 
  0.3333333E+00  0.3333333E+00  0.5551115E-16  0.2743484E-02
    1      -31.034808   1.000000
    2      -31.034802   1.000000
    3      -31.033711   1.000000
    4      -31.033690   1.000000
    5      -24.345037   1.000000
    6      -24.344990   1.000000
    7      -24.341162   1.000000
    8      -24.341130   1.000000
    9      -24.335546   1.000000
   10      -24.335524   1.000000
   11      -20.608252   1.000000
   12      -20.607734   1.000000
   13       -7.313801   1.000000
   14       -7.313678   1.000000
   15        0.487558   1.000000
   16        0.487670   1.000000
   17        1.929198   1.000000
   18        1.929333   1.000000
   19        6.488915   0.000000
   20        6.489120   0.000000
   21        7.856015   0.000000
   22        7.856304   0.000000
   23        9.649948   0.000000
   24        9.650018   0.000000
   25       12.390038   0.000000
   26       12.390087   0.000000
   27       13.498361   0.000000
   28       13.499439   0.000000
 
  0.4444444E+00  0.3333333E+00  0.5551115E-16  0.2743484E-02
    1      -31.034565   1.000000
    2      -31.034558   1.000000
    3      -31.033297   1.000000
    4      -31.033273   1.000000
    5      -24.344527   1.000000
    6      -24.344472   1.000000
    7      -24.340645   1.000000
    8      -24.340615   1.000000
    9      -24.334223   1.000000
   10      -24.334204   1.000000
   11      -20.588400   1.000000
   12      -20.587881   1.000000
   13       -7.375776   1.000000
   14       -7.375659   1.000000
   15        0.306755   1.000000
   16        0.306857   1.000000
   17        1.667450   1.000000
   18        1.667583   1.000000
   19        6.491524   0.000000
   20        6.491745   0.000000
   21        7.890508   0.000000
   22        7.890764   0.000000
   23        9.921623   0.000000
   24        9.921759   0.000000
   25       12.616194   0.000000
   26       12.616307   0.000000
   27       13.895876   0.000000
   28       13.896724   0.000000
 
 -0.4444444E+00  0.3333333E+00  0.6938894E-17  0.2743484E-02
    1      -31.034348   1.000000
    2      -31.034337   1.000000
    3      -31.033149   1.000000
    4      -31.033121   1.000000
    5      -24.343611   1.000000
    6      -24.343551   1.000000
    7      -24.339818   1.000000
    8      -24.339791   1.000000
    9      -24.334707   1.000000
   10      -24.334689   1.000000
   11      -20.577701   1.000000
   12      -20.577181   1.000000
   13       -7.408197   1.000000
   14       -7.408080   1.000000
   15        0.239600   1.000000
   16        0.239660   1.000000
   17        1.393835   1.000000
   18        1.393968   1.000000
   19        6.764167   0.000000
   20        6.764405   0.000000
   21        8.373794   0.000000
   22        8.373952   0.000000
   23       10.204508   0.000000
   24       10.204710   0.000000
   25       12.047929   0.000000
   26       12.048083   0.000000
   27       13.138547   0.000000
   28       13.139449   0.000000
 
 -0.3333333E+00  0.3333333E+00  0.5992849E-16  0.2743484E-02
    1      -31.034362   1.000000
    2      -31.034348   1.000000
    3      -31.033233   1.000000
    4      -31.033201   1.000000
    5      -24.343149   1.000000
    6      -24.343098   1.000000
    7      -24.338626   1.000000
    8      -24.338595   1.000000
    9      -24.336777   1.000000
   10      -24.336753   1.000000
   11      -20.581222   1.000000
   12      -20.580703   1.000000
   13       -7.398613   1.000000
   14       -7.398493   1.000000
   15        0.235306   1.000000
   16        0.235339   1.000000
   17        1.397245   1.000000
   18        1.397400   1.000000
   19        7.183983   0.000000
   20        7.184248   0.000000
   21        8.549959   0.000000
   22        8.550042   0.000000
   23       10.965398   0.000000
   24       10.965450   0.000000
   25       11.235930   0.000000
   26       11.236201   0.000000
   27       12.154370   0.000000
   28       12.154863   0.000000
 
 -0.2222222E+00  0.3333333E+00  0.2081668E-16  0.2743484E-02
    1      -31.034715   1.000000
    2      -31.034705   1.000000
    3      -31.033354   1.000000
    4      -31.033327   1.000000