    1    1  999    1
  0.5811493E+02  0.4347780E-09  0.4347780E-09  0.4347780E-09  0.1000000E-15
  1.000000000000000E-004
  CAR 
 Og_FCC                                  
     18    365     28
 
  0.0000000E+00  0.0000000E+00  0.0000000E+00  0.1371742E-02
    1      -31.001380   1.000000
    2      -31.001379   1.000000
    3      -31.001378   1.000000
    4      -31.001376   1.000000
    5      -24.313034   1.000000
    6      -24.313032   1.000000
    7      -24.309302   1.000000
    8      -24.309300   1.000000
    9      -24.309299   1.000000
   10      -24.309298   1.000000
   11      -20.681669   1.000000
   12      -20.681666   1.000000
   13       -6.922363   1.000000
   14       -6.922361   1.000000
   15        3.192712   0.865684
   16        3.192714   0.865670
   17        3.192717   0.865657
   18        3.192717   0.865655
   19        3.416379  -0.016646
   20        3.416383  -0.016644
   21       10.550538   0.000000
   22       10.550539   0.000000
   23       10.550541   0.000000
   24       10.550542   0.000000
   25       10.981340   0.000000
   26       10.981343   0.000000
   27       11.116824   0.000000
   28       11.116829   0.000000
 
  0.1111111E+00  0.1043312E-17 -0.6938894E-17  0.2743484E-02
    1      -31.001399   1.000000
    2      -31.001396   1.000000
    3      -31.001157   1.000000
    4      -31.001155   1.000000
    5      -24.312333   1.000000
    6      -24.312331   1.000000
    7      -24.309451   1.000000
    8      -24.309449   1.000000
    9      -24.308468   1.000000
   10      -24.308465   1.000000
   11      -20.669255   1.000000
   12      -20.669253   1.000000
   13       -6.966900   1.000000
   14       -6.966898   1.000000
   15        2.147064   1.000000
   16        2.147066   1.000000
   17        3.123180   1.035231
   18        3.123183   1.035231
   19        4.524086  -0.000000
   20        4.524088  -0.000000
   21        9.835732   0.000000
   22        9.835736   0.000000
   23       10.670938   0.000000
   24       10.670942   0.000000
   25       10.987664   0.000000
   26       10.987667   0.000000
   27       12.183712   0.000000
   28       12.183739   0.000000
 
  0.2222222E+00 -0.1179116E-16 -0.1387779E-16  0.2743484E-02
    1      -31.001228   1.000000
    2      -31.001225   1.000000
    3      -31.000344   1.000000
    4      -31.000342   1.000000
    5      -24.311227   1.000000
    6      -24.311223   1.000000
    7      -24.308950   1.000000
    8      -24.308948   1.000000
    9      -24.306283   1.000000
   10      -24.306281   1.000000
   11      -20.637531   1.000000
   12      -20.637529   1.000000
   13       -7.079784   1.000000
   14       -7.079782   1.000000
   15        1.208184   1.000000
   16        1.208186   1.000000
   17        2.957461   1.000217
   18        2.957463   1.000217
   19        5.487157  -0.000000
   20        5.487161  -0.000000
   21        9.563272   0.000000
   22        9.563276   0.000000
   23       10.653135   0.000000
   24       10.653138   0.000000
   25       11.051939   0.000000
   26       11.051942   0.000000
   27       11.679603   0.000000
   28       11.679610   0.000000
 
  0.3333333E+00 -0.2462564E-16 -0.1387779E-16  0.2743484E-02
    1      -31.001009   1.000000
    2      -31.001006   1.000000
    3      -30.999303   1.000000
    4      -30.999300   1.000000
    5      -24.311464   1.000000
    6      -24.311460   1.000000
    7      -24.306855   1.000000
    8      -24.306853   1.000000
    9      -24.303761   1.000000
   10      -24.303759   1.000000
   11      -20.600959   1.000000
   12      -20.600956   1.000000
   13       -7.208742   1.000000
   14       -7.208740   1.000000
   15        0.552607   1.000000
   16        0.552610   1.000000
   17        2.784152   1.000000
   18        2.784155   1.000000
   19        5.883957  -0.000000
   20        5.883961  -0.000000
   21       10.086826   0.000000
   22       10.086830   0.000000
   23       10.291782   0.000000
   24       10.291786   0.000000
   25       10.731893   0.000000
   26       10.731896   0.000000
   27       11.193082   0.000000
   28       11.193086   0.000000
 
  0.4444444E+00 -0.2358233E-16 -0.2775558E-16  0.2743484E-02
    1      -31.000804   1.000000
    2      -31.000801   1.000000
    3      -30.998576   1.000000
    4      -30.998574   1.000000
    5      -24.311814   1.000000
    6      -24.311811   1.000000
    7      -24.305262   1.000000
    8      -24.305260   1.000000
    9      -24.302093   1.000000
   10      -24.302091   1.000000
   11      -20.576792   1.000000
   12      -20.576790   1.000000
   13       -7.293224   1.000000
   14       -7.293222   1.000000
   15        0.217792   1.000000
   16        0.217795   1.000000
   17        2.678271   1.000000
   18        2.678274   1.000000
   19        5.930882  -0.000000
   20        5.930886  -0.000000
   21       10.036268   0.000000
   22       10.036271   0.000000
   23       10.326195   0.000000
   24       10.326199   0.000000
   25       10.458085   0.000000
   26       10.458088   0.000000
   27       11.721040   0.000000
   28       11.721044   0.000000
 
  0.0000000E+00  0.1111111E+00  0.0000000E+00  0.2743484E-02
    1      -31.001399   1.000000
    2      -31.001396   1.000000
    3      -31.001157   1.000000
    4      -31.001155   1.000000
    5      -24.312333   1.000000
    6      -24.312331   1.000000
    7      -24.309451   1.000000
    8      -24.309449   1.000000
    9      -24.308468   1.000000
   10      -24.308465   1.000000
   11      -20.669255   1.000000
   12      -20.669253   1.000000
   13       -6.966900   1.000000
   14       -6.966898   1.000000
   15        2.147064   1.000000
   16        2.147066   1.000000
   17        3.123180   1.035231
   18        3.123183   1.035231
   19        4.524086  -0.000000
   20        4.524088  -0.000000
   21        9.835732   0.000000
   22        9.835736   0.000000
   23       10.670939   0.000000
   24       10.670941   0.000000
   25       10.987664   0.000000
   26       10.987666   0.000000
   27       12.183710   0.000000
   28       12.183728   0.000000
 
  0.1111111E+00  0.1111111E+00  0.0000000E+00  0.2743484E-02
    1      -31.001301   1.000000
    2      -31.001300   1.000000
    3      -31.001131   1.000000
    4      -31.001128   1.000000
    5      -24.312206   1.000000
    6      -24.312204   1.000000
    7      -24.308946   1.000000
    8      -24.308942   1.000000
    9      -24.308603   1.000000
   10      -24.308601   1.000000
   11      -20.665127   1.000000
   12      -20.665125   1.000000
   13       -6.981121   1.000000
   14       -6.981119   1.000000
   15        2.044084   1.000000
   16        2.044087   1.000000
   17        2.960629   1.000256
   18        2.960631   1.000256
   19        4.806461  -0.000000
   20        4.806463  -0.000000
   21        9.544882   0.000000
   22        9.544885   0.000000
   23       10.701695   0.000000
   24       10.701697   0.000000
   25       11.272387   0.000000
   26       11.272391   0.000000
   27       11.452770   0.000000
   28       11.452773   0.000000
 
  0.2222222E+00  0.1111111E+00  0.1387779E-16  0.2743484E-02
    1      -31.001128   1.000000
    2      -31.001126   1.000000
    3      -31.000524   1.000000
    4      -31.000522   1.000000
    5      -24.311199   1.000000
    6      -24.311197   1.000000
    7      -24.308903   1.000000
    8      -24.308901   1.000000
    9      -24.306626   1.000000
   10      -24.306623   1.000000
   11      -20.639856   1.000000
   12      -20.639853   1.000000
   13       -7.069577   1.000000
   14       -7.069575   1.000000
   15        1.343748   1.000000
   16        1.343751   1.000000
   17        2.758448   1.000000
   18        2.758451   1.000000
   19        5.673091  -0.000000
   20        5.673093  -0.000000
   21        9.150220   0.000000
   22        9.150223   0.000000
   23       10.255857   0.000000
   24       10.255860   0.000000
   25       11.151366   0.000000
   26       11.151368   0.000000
   27       11.805009   0.000000
   28       11.805013   0.000000
 
  0.3333333E+00  0.1111111E+00  0.0000000E+00  0.2743484E-02
    1      -31.000880   1.000000
    2      -31.000878   1.000000
    3      -30.999488   1.000000
    4      -30.999486   1.000000
    5      -24.310803   1.000000
    6      -24.310800   1.000000
    7      -24.307551   1.000000
    8      -24.307549   1.000000
    9      -24.304126   1.000000
   10      -24.304123   1.000000
   11      -20.604885   1.000000
   12      -20.604883   1.000000
   13       -7.190773   1.000000
   14       -7.190771   1.000000
   15        0.696415   1.000000
   16        0.696417   1.000000
   17        2.538155   1.000000
   18        2.538158   1.000000
   19        6.258017   0.000000
   20        6.258021   0.000000
   21        9.395124   0.000000
   22        9.395126   0.000000
   23        9.676682   0.000000
   24        9.676684   0.000000
   25       11.019913   0.000000
   26       11.019917   0.000000
   27       12.420430   0.000000
   28       12.420462   0.000000
 
  0.4444444E+00  0.1111111E+00 -0.2775558E-16  0.2743484E-02
    1      -31.000751   1.000000
    2      -31.000748   1.000000
    3      -30.998810   1.000000
    4      -30.998808   1.000000
    5      -24.311087   1.000000
    6      -24.311083   1.000000
    7      -24.305616   1.000000
    8      -24.305614   1.000000
    9      -24.302513   1.000000
   10      -24.302510   1.000000
   11      -20.576538   1.000000
   12      -20.576536   1.000000
   13       -7.288067   1.000000
   14       -7.288066   1.000000
   15        0.295139   1.000000
   16        0.295142   1.000000
   17        2.368054   1.000000
   18        2.368056   1.000000
   19        6.409046   0.000000
   20        6.409050   0.000000
   21        9.138451   0.000000
   22        9.138455   0.000000
   23       10.401667   0.000000
   24       10.401669   0.000000
   25       10.885457   0.000000
   26       10.885459   0.000000
   27       12.170310   0.000000
   28       12.170313   0.000000
 
 -0.4444444E+00  0.1111111E+00  0.2775558E-16  0.2743484E-02
    1      -31.000663   1.000000
    2      -31.000661   1.000000
    3      -30.998604   1.000000
    4      -30.998602   1.000000
    5      -24.311146   1.000000
    6      -24.311143   1.000000
    7      -24.304898   1.000000
    8      -24.304897   1.000000
    9      -24.302211   1.000000
   10      -24.302209   1.000000
   11      -20.568446   1.000000
   12      -20.568444   1.000000
   13       -7.315679   1.000000
   14       -7.315677   1.000000
   15        0.191080   1.000000
   16        0.191082   1.000000
   17        2.319395   1.000000
   18        2.319397   1.000000
   19        6.435441   0.000000
   20        6.435445   0.000000
   21        9.069329   0.000000
   22        9.069332   0.000000
   23       10.406204   0.000000
   24       10.406207   0.000000
   25       11.252102   0.000000
   26       11.252105   0.000000
   27       12.337031   0.000000
   28       12.337035   0.000000
 
 -0.3333333E+00  0.1111111E+00  0.1387779E-16  0.2743484E-02
    1      -31.000765   1.000000
    2      -31.000762   1.000000
    3      -30.999003   1.000000
    4      -30.999001   1.000000
    5      -24.310869   1.000000
    6      -24.310866   1.000000
    7      -24.306175   1.000000
    8      -24.306173   1.000000
    9      -24.303082   1.000000
   10      -24.303081   1.000000
   11      -20.584571   1.000000
   12      -20.584569   1.000000
   13       -7.260860   1.000000
   14       -7.260858   1.000000
   15        0.393620   1.000000
   16        0.393623   1.000000
   17        2.415335   1.000000
   18        2.415338   1.000000
   19        6.419893   0.000000
   20        6.419897   0.000000
   21        9.298561   0.000000
   22        9.298564   0.000000
   23       10.319304   0.000000
   24       10.319308   0.000000
   25       10.647368   0.000000
   26       10.647372   0.000000
   27       12.407645   0.000000
   28       12.407651   0.000000
 
 -0.2222222E+00  0.1111111E+00  0.0000000E+00  0.2743484E-02
    1      -31.000968   1.000000
    2      -31.000965   1.000000
    3      -30.999864   1.000000
    4      -30.999863   1.000000
    5      -24.310471   1.000000
    6      -24.310468   1.000000
    7      -24.308513   1.000000
    8      -24.308511   1.000000
    9      -24.304980   1.000000
   10      -24.304978   1.000000
   11      -20.617045   1.000000
   12      -20.617043   1.000000
   13       -7.149420   1.000000
   14       -7.149418   1.000000
   15        0.878440   1.000000
   16        0.878442   1.000000
   17        2.632971   1.000000
   18        2.632973   1.000000
   19        6.124344   0.000000
   20        6.124347   0.000000
   21        9.386174   0.000000
   22        9.386179   0.000000
   23       10.033297   0.000000
   24       10.033299   0.000000
   25       10.878447   0.000000
   26       10.878451   0.000000
   27       11.834136   0.000000
   28       11.834138   0.000000
 
 -0.1111111E+00  0.1111111E+00 -0.3696723E-18  0.2743484E-02
    1      -31.001241   1.000000
    2      -31.001237   1.000000
    3      -31.000743   1.000000
    4      -31.000742   1.000000
    5      -24.311313   1.000000
    6      -24.311311   1.000000
    7      -24.309473   1.000000
    8      -24.309472   1.000000
    9      -24.307203   1.000000
   10      -24.307202   1.000000
   11      -20.650405   1.000000
   12      -20.650402   1.000000
   13       -7.033430   1.000000
   14       -7.033428   1.000000
   15        1.556639   1.000000
   16        1.556642   1.000000
   17        2.912284   1.000016
   18        2.912287   1.000016
   19        5.312687  -0.000000
   20        5.312689  -0.000000
   21        9.423397   0.000000
   22        9.423402   0.000000
   23       10.595711   0.000000
   24       10.595714   0.000000
   25       11.093670   0.000000
   26       11.093673   0.000000
   27       11.673116   0.000000
   28       11.673119   0.000000
 
 -0.3851860E-33  0.2222222E+00  0.0000000E+00  0.2743484E-02
    1      -31.001228   1.000000
    2      -31.001225   1.000000
    3      -31.000344   1.000000
    4      -31.000342   1.000000
    5      -24.311227   1.000000
    6      -24.311223   1.000000
    7      -24.308950   1.000000
    8      -24.308948   1.000000
    9      -24.306283   1.000000
   10      -24.306281   1.000000
   11      -20.637532   1.000000
   12      -20.637529   1.000000
   13       -7.079784   1.000000
   14       -7.079782   1.000000
   15        1.208183   1.000000
   16        1.208186   1.000000
   17        2.957461   1.000217
   18        2.957463   1.000217
   19        5.487158  -0.000000
   20        5.487160  -0.000000
   21        9.563272   0.000000
   22        9.563276   0.000000
   23       10.653135   0.000000
   24       10.653138   0.000000
   25       11.051939   0.000000
   26       11.051941   0.000000
   27       11.679604   0.000000
   28       11.679607   0.000000
 
  0.1111111E+00  0.2222222E+00 -0.5551115E-16  0.2743484E-02
    1      -31.001128   1.000000
    2      -31.001126   1.000000
    3      -31.000524   1.000000
    4      -31.000522   1.000000
    5      -24.311199   1.000000
    6      -24.311197   1.000000
    7      -24.308903   1.000000
    8      -24.308901   1.000000
    9      -24.306626   1.000000
   10      -24.306623   1.000000
   11      -20.639856   1.000000
   12      -20.639853   1.000000
   13       -7.069577   1.000000
   14       -7.069575   1.000000
   15        1.343748   1.000000
   16        1.343751   1.000000
   17        2.758449   1.000000
   18        2.758451   1.000000
   19        5.673091  -0.000000
   20        5.673093  -0.000000
   21        9.150220   0.000000
   22        9.150223   0.000000
   23       10.255857   0.000000
   24       10.255860   0.000000
   25       11.151365   0.000000
   26       11.151369   0.000000
   27       11.805008   0.000000
   28       11.805013   0.000000
 
  0.2222222E+00  0.2222222E+00  0.2775558E-16  0.2743484E-02
    1      -31.000947   1.000000
    2      -31.000947   1.000000
    3      -31.000301   1.000000
    4      -31.000298   1.000000
    5      -24.311241   1.000000
    6      -24.311239   1.000000
    7      -24.308000   1.000000
    8      -24.307997   1.000000
    9      -24.305533   1.000000
   10      -24.305531   1.000000
   11      -20.622961   1.000000
   12      -20.622958   1.000000
   13       -7.125102   1.000000
   14       -7.125100   1.000000
   15        1.113217   1.000000
   16        1.113220   1.000000
   17        2.451638   1.000000
   18        2.451641   1.000000
   19        6.214933   0.000000
   20        6.214936   0.000000
   21        8.556398   0.000000
   22        8.556401   0.000000
   23        9.715999   0.000000
   24        9.716003   0.000000
   25       11.408028   0.000000
   26       11.408031   0.000000
   27       12.312359   0.000000
   28       12.312363   0.000000
 
  0.3333333E+00  0.2222222E+00 -0.8326673E-16  0.2743484E-02
    1      -31.000604   1.000000
    2      -31.000602   1.000000
    3      -30.999557   1.000000
    4      -30.999555   1.000000
    5      -24.310631   1.000000
    6      -24.310630   1.000000
    7      -24.307444   1.000000
    8      -24.307441   1.000000
    9      -24.303213   1.000000
   10      -24.303211   1.000000
   11      -20.594503   1.000000
   12      -20.594500   1.000000
   13       -7.219297   1.000000
   14       -7.219295   1.000000
   15        0.699732   1.000000
   16        0.699734   1.000000
   17        2.170637   1.000000
   18        2.170639   1.000000
   19        6.674571   0.000000
   20        6.674574   0.000000
   21        8.420118   0.000000
   22        8.420120   0.000000
   23        9.340375   0.000000
   24        9.340379   0.000000
   25       11.716502   0.000000
   26       11.716505   0.000000
   27       12.873219   0.000000
   28       12.873223   0.000000
 
  0.4444444E+00  0.2222222E+00 -0.2775558E-16  0.2743484E-02
    1      -31.000329   1.000000
    2      -31.000327   1.000000
    3      -30.998929   1.000000
    4      -30.998926   1.000000
    5      -24.310043   1.000000
    6      -24.310041   1.000000
    7      -24.306227   1.000000
    8      -24.306224   1.000000
    9      -24.301839   1.000000
   10      -24.301837   1.000000
   11      -20.567703   1.000000
   12      -20.567701   1.000000
   13       -7.306738   1.000000
   14       -7.306736   1.000000
   15        0.372198   1.000000
   16        0.372200   1.000000
   17        1.885800   1.000000
   18        1.885802   1.000000
   19        6.927295   0.000000
   20        6.927298   0.000000
   21        8.563927   0.000000
   22        8.563929   0.000000
   23        9.591180   0.000000
   24        9.591183   0.000000
   25       11.525549   0.000000
   26       11.525553   0.000000
   27       13.244663   0.000000
   28       13.244667   0.000000
 
 -0.4444444E+00  0.2222222E+00  0.1387779E-16  0.2743484E-02
    1      -31.000167   1.000000
    2      -31.000165   1.000000
    3      -30.998620   1.000000
    4      -30.998618   1.000000
    5      -24.309735   1.000000
    6      -24.309732   1.000000
    7      -24.304676   1.000000
    8      -24.304674   1.000000
    9      -24.302215   1.000000
   10      -24.302212   1.000000
   11      -20.555303   1.000000
   12      -20.555300   1.000000
   13       -7.346669   1.000000
   14       -7.346667   1.000000
   15        0.228240   1.000000
   16        0.228242   1.000000
   17        1.735215   1.000000
   18        1.735217   1.000000
   19        7.126768   0.000000
   20        7.126771   0.000000
   21        8.472157   0.000000
   22        8.472161   0.000000
   23       10.597040   0.000000
   24       10.597043   0.000000
   25       11.335877   0.000000
   26       11.335880   0.000000
   27       12.613455   0.000000
   28       12.613459   0.000000
 
 -0.3333333E+00  0.2222222E+00 -0.1387779E-16  0.2743484E-02
    1      -31.000226   1.000000
    2      -31.000223   1.000000
    3      -30.998759   1.000000
    4      -30.998757   1.000000
    5      -24.309466   1.000000
    6      -24.309464   1.000000
    7      -24.304947   1.000000
    8      -24.304945   1.000000
    9      -24.303118   1.000000
   10      -24.303116   1.000000
   11      -20.563273   1.000000
   12      -20.563271   1.000000
   13       -7.321967   1.000000
   14       -7.321965   1.000000
   15        0.288840   1.000000
   16        0.288842   1.000000
   17        1.819305   1.000000
   18        1.819307   1.000000
   19        7.313106   0.000000
   20        7.313109   0.000000
   21        8.487474   0.000000
   22        8.487477   0.000000
   23       10.370434   0.000000
   24       10.370437   0.000000
   25       11.304266   0.000000
   26       11.304269   0.000000
   27       12.814872   0.000000
   28       12.814984   0.000000
 
 -0.2222222E+00  0.2222222E+00 -0.1619802E-16  0.2743484E-02
    1      -31.000576   1.000000
    2      -31.000573   1.000000
    3      -30.999299   1.000000
    4      -30.999297   1.000000
    5      -24.309374   1.000000
    6      -24.309372   1.000000
    7      -24.307463   1.000000
    8      -24.307463   1.000000
    9      -24.303637   1.000000
   10      -24.303636   1.000000
   11      -20.587748   1.000000
   12      -20.587746   1.000000
   13       -7.244687   1.000000
   14       -7.244685   1.000000
   15        0.530903   1.000000
   16        0.530906   1.000000
   17        2.148018   1.000000
   18        2.148020   1.000000
   19        7.014248   0.000000
   20        7.014250   0.000000
   21        8.862392   0.000000
   22        8.862394   0.000000
   23        9.741191   0.000000
   24        9.741194   0.000000
   25       11.100179   0.000000
   26       11.100182   0.000000
   27       11.904248   0.000000
   28       11.904251   0.000000
 
 -0.1111111E+00  0.2222222E+00 -0.6938894E-17  0.2743484E-02
    1      -31.000968   1.000000
    2      -31.000965   1.000000
    3      -30.999864   1.000000
    4      -30.999863   1.000000
    5      -24.310471   1.000000
    6      -24.310468   1.000000
    7      -24.308513   1.000000
    8      -24.308511   1.000000
    9      -24.304980   1.000000
   10      -24.304978   1.000000
   11      -20.617045   1.000000
   12      -20.617043   1.000000
   13       -7.149420   1.000000
   14       -7.149418   1.000000
   15        0.878440   1.000000
   16        0.878442   1.000000
   17        2.632971   1.000000
   18        2.632973   1.000000
   19        6.124345   0.000000
   20        6.124347   0.000000
   21        9.386174   0.000000
   22        9.386179   0.000000
   23       10.033297   0.000000
   24       10.033300   0.000000
   25       10.878448   0.000000
   26       10.878450   0.000000
   27       11.834135   0.000000
   28       11.834139   0.000000
 
 -0.3851860E-33  0.3333333E+00 -0.1387779E-16  0.2743484E-02
    1      -31.001009   1.000000
    2      -31.001006   1.000000
    3      -30.999302   1.000000
    4      -30.999301   1.000000
    5      -24.311464   1.000000
    6      -24.311460   1.000000
    7      -24.306856   1.000000
    8      -24.306853   1.000000
    9      -24.303761   1.000000
   10      -24.303759   1.000000
   11      -20.600959   1.000000
   12      -20.600956   1.000000
   13       -7.208742   1.000000
   14       -7.208740   1.000000
   15        0.552607   1.000000
   16        0.552610   1.000000
   17        2.784152   1.000000
   18        2.784155   1.000000
   19        5.883958  -0.000000
   20        5.883961  -0.000000
   21       10.086825   0.000000
   22       10.086830   0.000000
   23       10.291783   0.000000
   24       10.291786   0.000000
   25       10.731893   0.000000
   26       10.731895   0.000000
   27       11.193083   0.000000
   28       11.193085   0.000000
 
  0.1111111E+00  0.3333333E+00 -0.2775558E-16  0.2743484E-02
    1      -31.000880   1.000000
    2      -31.000878   1.000000
    3      -30.999488   1.000000
    4      -30.999486   1.000000
    5      -24.310803   1.000000
    6      -24.310800   1.000000
    7      -24.307551   1.000000
    8      -24.307549   1.000000
    9      -24.304126   1.000000
   10      -24.304123   1.000000
   11      -20.604885   1.000000
   12      -20.604883   1.000000
   13       -7.190773   1.000000
   14       -7.190771   1.000000
   15        0.696414   1.000000
   16        0.696417   1.000000
   17        2.538155   1.000000
   18        2.538158   1.000000
   19        6.258018   0.000000
   20        6.258021   0.000000
   21        9.395123   0.000000
   22        9.395126   0.000000
   23        9.676681   0.000000
   24        9.676685   0.000000
   25       11.019913   0.000000
   26       11.019917   0.000000
   27       12.420451   0.000000
   28       12.420498   0.000000
 
  0.2222222E+00  0.3333333E+00 -0.2775558E-16  0.2743484E-02
    1      -31.000604   1.000000
    2      -31.000602   1.000000
    3      -30.999557   1.000000
    4      -30.999555   1.000000
    5      -24.310631   1.000000
    6      -24.310630   1.000000
    7      -24.307444   1.000000
    8      -24.307441   1.000000
    9      -24.303213   1.000000
   10      -24.303211   1.000000
   11      -20.594503   1.000000
   12      -20.594500   1.000000
   13       -7.219297   1.000000
   14       -7.219295   1.000000
   15        0.699732   1.000000
   16        0.699734   1.000000
   17        2.170637   1.000000
   18        2.170639   1.000000
   19        6.674571   0.000000
   20        6.674574   0.000000
   21        8.420118   0.000000
   22        8.420121   0.000000
   23        9.340375   0.000000
   24        9.340379   0.000000
   25       11.716501   0.000000
   26       11.716506   0.000000
   27       12.873218   0.000000
   28       12.873223   0.000000
 
  0.3333333E+00  0.3333333E+00 -0.5551115E-16  0.2743484E-02
    1      -31.000336   1.000000
    2      -31.000335   1.000000
    3      -30.999135   1.000000
    4      -30.999132   1.000000
    5      -24.310863   1.000000
    6      -24.310862   1.000000
    7      -24.306874   1.000000
    8      -24.306870   1.000000
    9      -24.301147   1.000000
   10      -24.301145   1.000000
   11      -20.574529   1.000000
   12      -20.574526   1.000000
   13       -7.281124   1.000000
   14       -7.281122   1.000000
   15        0.514376   1.000000
   16        0.514378   1.000000
   17        1.966180   1.000000
   18        1.966182   1.000000
   19        6.527879   0.000000
   20        6.527881   0.000000
   21        7.890767   0.000000
   22        7.890770   0.000000
   23        9.701465   0.000000
   24        9.701470   0.000000
   25       12.449094   0.000000
   26       12.449097   0.000000
   27       13.557525   0.000000
   28       13.557528   0.000000
 
  0.4444444E+00  0.3333333E+00 -0.5551115E-16  0.2743484E-02
    1      -30.999986   1.000000
    2      -30.999986   1.000000
    3      -30.998654   1.000000
    4      -30.998651   1.000000
    5      -24.310302   1.000000
    6      -24.310301   1.000000
    7      -24.306330   1.000000
    8      -24.306326   1.000000
    9      -24.299763   1.000000
   10      -24.299761   1.000000
   11      -20.554294   1.000000
   12      -20.554291   1.000000
   13       -7.343832   1.000000
   14       -7.343830   1.000000
   15        0.332297   1.000000
   16        0.332300   1.000000
   17        1.702191   1.000000
   18        1.702194   1.000000
   19        6.527173   0.000000
   20        6.527175   0.000000
   21        7.927204   0.000000
   22        7.927207   0.000000
   23        9.974831   0.000000
   24        9.974835   0.000000
   25       12.675776   0.000000
   26       12.675779   0.000000
   27       13.956547   0.000000
   28       13.956550   0.000000
 
 -0.4444444E+00  0.3333333E+00 -0.1387779E-16  0.2743484E-02
    1      -30.999754   1.000000
    2      -30.999753   1.000000
    3      -30.998521   1.000000
    4      -30.998519   1.000000
    5      -24.309351   1.000000
    6      -24.309350   1.000000
    7      -24.305491   1.000000
    8      -24.305488   1.000000
    9      -24.300270   1.000000
   10      -24.300269   1.000000
   11      -20.543390   1.000000
   12      -20.543387   1.000000
   13       -7.376664   1.000000
   14       -7.376663   1.000000
   15        0.264138   1.000000
   16        0.264140   1.000000
   17        1.426510   1.000000
   18        1.426512   1.000000
   19        6.798903   0.000000
   20        6.798905   0.000000
   21        8.418040   0.000000
   22        8.418041   0.000000
   23       10.254888   0.000000
   24       10.254891   0.000000
   25       12.106151   0.000000
   26       12.106154   0.000000
   27       13.198474   0.000000
   28       13.198476   0.000000
 
 -0.3333333E+00  0.3333333E+00 -0.1346428E-16  0.2743484E-02
    1      -30.999825   1.000000
    2      -30.999822   1.000000
    3      -30.998609   1.000000
    4      -30.998607   1.000000
    5      -24.308902   1.000000
    6      -24.308901   1.000000
    7      -24.304275   1.000000
    8      -24.304273   1.000000
    9      -24.302398   1.000000
   10      -24.302396   1.000000
   11      -20.546976   1.000000
   12      -20.546973   1.000000
   13       -7.367000   1.000000
   14       -7.366998   1.000000
   15        0.259344   1.000000
   16        0.259345   1.000000
   17        1.430296   1.000000
   18        1.430298   1.000000
   19        7.219500   0.000000
   20        7.219502   0.000000
   21        8.600158   0.000000
   22        8.600161   0.000000
   23       11.022724   0.000000
   24       11.022727   0.000000
   25       11.284050   0.000000
   26       11.284053   0.000000
   27       12.209778   0.000000
   28       12.209780   0.000000
 
 -0.2222222E+00  0.3333333E+00  0.2775558E-16  0.2743484E-02
    1      -31.000226   1.000000
    2      -31.000223   1.000000
    3      -30.998759   1.000000
    4      -30.998757   1.000000