Og_FCC                                  
           1
     4.354229    0.000000    0.000000
     2.177114    3.770873   -0.000000
     2.177114    1.256958    3.555213
   Og
   1
Direct configuration=     1
   0.00000000  0.00000000  0.00000000
Og_FCC                                  
           1
     4.353310    0.000000    0.000000
     2.176655    3.770077   -0.000000
     2.176655    1.256692    3.554463
   Og
   1
Direct configuration=     2
   0.00000000  0.00000000  0.00000000
Og_FCC                                  
           1
     4.348145    0.000000    0.000000
     2.174072    3.765604   -0.000000
     2.174072    1.255201    3.550245
   Og
   1
Direct configuration=     3
   0.00000000  0.00000000  0.00000000
Og_FCC                                  
           1
     4.350578    0.000000    0.000000
     2.175289    3.767711   -0.000000
     2.175289    1.255904    3.552232
   Og
   1
Direct configuration=     4
   0.00000000  0.00000000  0.00000000
Og_FCC                                  
           1
     4.348741    0.000000    0.000000
     2.174371    3.766120   -0.000000
     2.174371    1.255373    3.550732
   Og
   1
Direct configuration=     5
   0.00000000  0.00000000  0.00000000
Og_FCC                                  
           1
     4.347780    0.000000    0.000000
     2.173890    3.765288   -0.000000
     2.173890    1.255096    3.549948
   Og
   1
Direct configuration=     6
   0.00000000  0.00000000  0.00000000
