Og_FCC                                  
           1
     4.399530    0.000000    0.000000
     2.199765    3.810105   -0.000000
     2.199765    1.270035    3.592201
   Og
   1
Direct configuration=     1
   0.00000000  0.00000000  0.00000000
