Og_FCC                                  
           1
     4.392855    0.000000    0.000000
     2.196427    3.804324   -0.000000
     2.196427    1.268108    3.586751
   Og
   1
Direct configuration=     1
   0.00000000  0.00000000  0.00000000
Og_FCC                                  
           1
     4.393835    0.000000    0.000000
     2.196917    3.805172   -0.000000
     2.196917    1.268391    3.587551
   Og
   1
Direct configuration=     2
   0.00000000  0.00000000  0.00000000
Og_FCC                                  
           1
     4.396475    0.000000    0.000000
     2.198237    3.807459   -0.000000
     2.198237    1.269153    3.589707
   Og
   1
Direct configuration=     3
   0.00000000  0.00000000  0.00000000
Og_FCC                                  
           1
     4.399530    0.000000    0.000000
     2.199765    3.810105   -0.000000
     2.199765    1.270035    3.592201
   Og
   1
Direct configuration=     4
   0.00000000  0.00000000  0.00000000
