Og_FCC                                  
           1
     4.347780    0.000000    0.000000
     2.173890    3.765288   -0.000000
     2.173890    1.255096    3.549948
   Og
   1
Direct configuration=     1
   0.00000000  0.00000000  0.00000000
Og_FCC                                  
           1
     4.353677    0.000000    0.000000
     2.176839    3.770395   -0.000000
     2.176839    1.256798    3.554763
   Og
   1
Direct configuration=     2
   0.00000000  0.00000000  0.00000000
Og_FCC                                  
           1
     4.390842    0.000000    0.000000
     2.195421    3.802580   -0.000000
     2.195421    1.267527    3.585107
   Og
   1
Direct configuration=     3
   0.00000000  0.00000000  0.00000000
Og_FCC                                  
           1
     4.392855    0.000000    0.000000
     2.196427    3.804324   -0.000000
     2.196427    1.268108    3.586751
   Og
   1
Direct configuration=     4
   0.00000000  0.00000000  0.00000000
