   1   1   0   0
  0.6083477E+02  0.4414576E-09  0.4414576E-09  0.4414576E-09  0.1000000E-15
  1.000000000000000E-004
  CAR 
 Og_FCC                                  
     77.46774421    -56.54916270  301     -3.16576145      1.00000000
    -56.549  0.0000E+00  0.0000E+00
    -56.102  0.0000E+00  0.0000E+00
    -55.656  0.0000E+00  0.0000E+00
    -55.209  0.0000E+00  0.0000E+00
    -54.762  0.0000E+00  0.0000E+00
    -54.316  0.0000E+00  0.0000E+00
    -53.869  0.0000E+00  0.0000E+00
    -53.422  0.0000E+00  0.0000E+00
    -52.975  0.0000E+00  0.0000E+00
    -52.529  0.0000E+00  0.0000E+00
    -52.082  0.0000E+00  0.0000E+00
    -51.635  0.0000E+00  0.0000E+00
    -51.188  0.0000E+00  0.0000E+00
    -50.742  0.0000E+00  0.0000E+00
    -50.295  0.0000E+00  0.4000E+01
    -49.848  0.0000E+00  0.4000E+01
    -49.402  0.0000E+00  0.4000E+01
    -48.955  0.0000E+00  0.4000E+01
    -48.508  0.0000E+00  0.4000E+01
    -48.061  0.0000E+00  0.4000E+01
    -47.615  0.0000E+00  0.4000E+01
    -47.168  0.0000E+00  0.4000E+01
    -46.721  0.0000E+00  0.4000E+01
    -46.275  0.0000E+00  0.4000E+01
    -45.828  0.0000E+00  0.4000E+01
    -45.381  0.0000E+00  0.1000E+02
    -44.934  0.0000E+00  0.1000E+02
    -44.488  0.0000E+00  0.1000E+02
    -44.041  0.0000E+00  0.1000E+02
    -43.594  0.0000E+00  0.1000E+02
    -43.147  0.0000E+00  0.1000E+02
    -42.701  0.0000E+00  0.1000E+02
    -42.254  0.0000E+00  0.1000E+02
    -41.807  0.0000E+00  0.1000E+02
    -41.361  0.0000E+00  0.1000E+02
    -40.914  0.0000E+00  0.1000E+02
    -40.467  0.0000E+00  0.1000E+02
    -40.020  0.0000E+00  0.1000E+02
    -39.574  0.0000E+00  0.1000E+02
    -39.127  0.0000E+00  0.1000E+02
    -38.680  0.0000E+00  0.1000E+02
    -38.234  0.0000E+00  0.1000E+02
    -37.787  0.0000E+00  0.1000E+02
    -37.340  0.0000E+00  0.1000E+02
    -36.893  0.0000E+00  0.1000E+02
    -36.447  0.0000E+00  0.1000E+02
    -36.000  0.0000E+00  0.1000E+02
    -35.553  0.0000E+00  0.1000E+02
    -35.106  0.0000E+00  0.1000E+02
    -34.660  0.0000E+00  0.1000E+02
    -34.213  0.0000E+00  0.1000E+02
    -33.766  0.0000E+00  0.1000E+02
    -33.320  0.0000E+00  0.1000E+02
    -32.873  0.0000E+00  0.1000E+02
    -32.426  0.0000E+00  0.1000E+02
    -31.979  0.0000E+00  0.1000E+02
    -31.533  0.0000E+00  0.1000E+02
    -31.086  0.0000E+00  0.1000E+02
    -30.639  0.0000E+00  0.1000E+02
    -30.193  0.0000E+00  0.1000E+02
    -29.746  0.0000E+00  0.1000E+02
    -29.299  0.0000E+00  0.1000E+02
    -28.852  0.0000E+00  0.1000E+02
    -28.406  0.0000E+00  0.1000E+02
    -27.959  0.0000E+00  0.1000E+02
    -27.512  0.0000E+00  0.1000E+02
    -27.065  0.0000E+00  0.1000E+02
    -26.619  0.0000E+00  0.1000E+02
    -26.172  0.0000E+00  0.1000E+02
    -25.725  0.0000E+00  0.1000E+02
    -25.279  0.0000E+00  0.1000E+02
    -24.832  0.0000E+00  0.1000E+02
    -24.385  0.0000E+00  0.1000E+02
    -23.938  0.0000E+00  0.1000E+02
    -23.492  0.0000E+00  0.1000E+02
    -23.045  0.0000E+00  0.1000E+02
    -22.598  0.0000E+00  0.1000E+02
    -22.151  0.0000E+00  0.1000E+02
    -21.705  0.0000E+00  0.1000E+02
    -21.258  0.0000E+00  0.1000E+02
    -20.811  0.0000E+00  0.1000E+02
    -20.365  0.0000E+00  0.1000E+02
    -19.918  0.1658E+00  0.1008E+02
    -19.471  0.0000E+00  0.1200E+02
    -19.024  0.0000E+00  0.1200E+02
    -18.578  0.0000E+00  0.1200E+02
    -18.131  0.0000E+00  0.1200E+02
    -17.684  0.0000E+00  0.1200E+02
    -17.238  0.0000E+00  0.1200E+02
    -16.791  0.0000E+00  0.1200E+02
    -16.344  0.0000E+00  0.1200E+02
    -15.897  0.0000E+00  0.1200E+02
    -15.451  0.0000E+00  0.1200E+02
    -15.004  0.0000E+00  0.1200E+02
    -14.557  0.0000E+00  0.1200E+02
    -14.110  0.0000E+00  0.1200E+02
    -13.664  0.0000E+00  0.1200E+02
    -13.217  0.0000E+00  0.1200E+02
    -12.770  0.0000E+00  0.1200E+02
    -12.324  0.0000E+00  0.1200E+02
    -11.877  0.0000E+00  0.1200E+02
    -11.430  0.0000E+00  0.1200E+02
    -10.983  0.0000E+00  0.1200E+02
    -10.537  0.0000E+00  0.1200E+02
    -10.090  0.0000E+00  0.1200E+02
     -9.643  0.0000E+00  0.1200E+02
     -9.197  0.0000E+00  0.1200E+02
     -8.750  0.0000E+00  0.1200E+02
     -8.303  0.0000E+00  0.1200E+02
     -7.856  0.0000E+00  0.1273E+02
     -7.410  0.2487E+00  0.1386E+02
     -6.963  0.0000E+00  0.1399E+02
     -6.516  0.0000E+00  0.1400E+02
     -6.069  0.0000E+00  0.1400E+02
     -5.623  0.0000E+00  0.1400E+02
     -5.176  0.3208E-05  0.1414E+02
     -4.729  0.0000E+00  0.1545E+02
     -4.283  0.2881E-13  0.1619E+02
     -3.836  0.1658E+00  0.1719E+02
     -3.389  0.0000E+00  0.1791E+02
     -2.942  0.0000E+00  0.1800E+02
     -2.496  0.0000E+00  0.1800E+02
     -2.049  0.0000E+00  0.1800E+02
     -1.602  0.0000E+00  0.1800E+02
     -1.156  0.0000E+00  0.1800E+02
     -0.709  0.0000E+00  0.1800E+02
     -0.262  0.0000E+00  0.1800E+02
      0.185  0.0000E+00  0.1800E+02
      0.631  0.0000E+00  0.1800E+02
      1.078  0.0000E+00  0.1800E+02
      1.525  0.0000E+00  0.1800E+02
      1.972  0.0000E+00  0.1800E+02
      2.418  0.0000E+00  0.1800E+02
      2.865  0.0000E+00  0.1800E+02
      3.312  0.0000E+00  0.1800E+02
      3.758  0.0000E+00  0.1801E+02
      4.205  0.0000E+00  0.1801E+02
      4.652  0.0000E+00  0.1808E+02
      5.099  0.0000E+00  0.1814E+02
      5.545  0.0000E+00  0.1817E+02
      5.992  0.0000E+00  0.1867E+02
      6.439  0.6218E-01  0.1925E+02
      6.886  0.0000E+00  0.1986E+02
      7.332  0.0000E+00  0.2031E+02
      7.779  0.0000E+00  0.2108E+02
      8.226  0.0000E+00  0.2203E+02
      8.672  0.0000E+00  0.2232E+02
      9.119  0.4974E+00  0.2303E+02
      9.566  0.2073E-01  0.2363E+02
     10.013  0.0000E+00  0.2461E+02
     10.459  0.0000E+00  0.2550E+02
     10.906  0.0000E+00  0.2583E+02
     11.353  0.0000E+00  0.2594E+02
     11.799  0.0000E+00  0.2674E+02
     12.246  0.0000E+00  0.2776E+02
     12.693  0.0000E+00  0.2837E+02
     13.140  0.0000E+00  0.2887E+02
     13.586  0.0000E+00  0.2961E+02
     14.033  0.0000E+00  0.3047E+02
     14.480  0.0000E+00  0.3069E+02
     14.927  0.0000E+00  0.3145E+02
     15.373  0.0000E+00  0.3223E+02
     15.820  0.0000E+00  0.3368E+02
     16.267  0.0000E+00  0.3539E+02
     16.713  0.1658E+00  0.3670E+02
     17.160  0.0000E+00  0.3837E+02
     17.607  0.0000E+00  0.4037E+02
     18.054  0.2487E+00  0.4119E+02
     18.500  0.4974E+00  0.4325E+02
     18.947  0.4974E+00  0.4509E+02
     19.394  0.4973E+00  0.4688E+02
     19.840  0.0000E+00  0.4762E+02
     20.287  0.4974E+00  0.4884E+02
     20.734  0.0000E+00  0.4960E+02
     21.181  0.4974E+00  0.5094E+02
     21.627  0.7068E-03  0.5185E+02
     22.074  0.5413E-06  0.5340E+02
     22.521  0.0000E+00  0.5497E+02
     22.968  0.2487E+00  0.5627E+02
     23.414  0.2410E-10  0.5732E+02
     23.861  0.0000E+00  0.5775E+02
     24.308  0.4628E+00  0.5854E+02
     24.754  0.0000E+00  0.5961E+02
     25.201  0.0000E+00  0.6053E+02
     25.648  0.0000E+00  0.6137E+02
     26.095  0.0000E+00  0.6271E+02
     26.541  0.0000E+00  0.6338E+02
     26.988  0.2487E+00  0.6454E+02
     27.435  0.1349E-02  0.6572E+02
     27.881  0.0000E+00  0.6667E+02
     28.328  0.0000E+00  0.6833E+02
     28.775  0.0000E+00  0.7044E+02
     29.222  0.0000E+00  0.7118E+02
     29.668  0.0000E+00  0.7213E+02
     30.115  0.0000E+00  0.7296E+02
     30.562  0.0000E+00  0.7352E+02
     31.009  0.0000E+00  0.7469E+02
     31.455  0.1658E+00  0.7515E+02
     31.902  0.0000E+00  0.7714E+02
     32.349  0.0000E+00  0.7876E+02
     32.795  0.0000E+00  0.8020E+02
     33.242  0.0000E+00  0.8151E+02
     33.689  0.0000E+00  0.8288E+02
     34.136  0.0000E+00  0.8360E+02
     34.582  0.0000E+00  0.8517E+02
     35.029  0.0000E+00  0.8597E+02
     35.476  0.0000E+00  0.8706E+02
     35.923  0.0000E+00  0.8807E+02
     36.369  0.4049E+00  0.8913E+02
     36.816  0.0000E+00  0.9005E+02
     37.263  0.0000E+00  0.9115E+02
     37.709  0.0000E+00  0.9264E+02
     38.156  0.0000E+00  0.9380E+02
     38.603  0.1658E+00  0.9593E+02
     39.050  0.1614E-02  0.9637E+02
     39.496  0.7453E-02  0.9761E+02
     39.943  0.0000E+00  0.9852E+02
     40.390  0.3544E-08  0.1002E+03
     40.836  0.0000E+00  0.1016E+03
     41.283  0.4507E+00  0.1031E+03
     41.730  0.0000E+00  0.1045E+03
     42.177  0.0000E+00  0.1060E+03
     42.623  0.4974E+00  0.1079E+03
     43.070  0.0000E+00  0.1085E+03
     43.517  0.8291E-01  0.1090E+03
     43.964  0.0000E+00  0.1106E+03
     44.410  0.1381E-16  0.1122E+03
     44.857  0.0000E+00  0.1140E+03
     45.304  0.2487E+00  0.1151E+03
     45.750  0.0000E+00  0.1162E+03
     46.197  0.0000E+00  0.1180E+03
     46.644  0.0000E+00  0.1190E+03
     47.091  0.0000E+00  0.1205E+03
     47.537  0.1593E-03  0.1212E+03
     47.984  0.1658E+00  0.1224E+03
     48.431  0.0000E+00  0.1237E+03
     48.877  0.0000E+00  0.1248E+03
     49.324  0.0000E+00  0.1269E+03
     49.771  0.2486E+00  0.1285E+03
     50.218  0.0000E+00  0.1303E+03
     50.664  0.0000E+00  0.1313E+03
     51.111  0.0000E+00  0.1328E+03
     51.558  0.0000E+00  0.1341E+03
     52.005  0.0000E+00  0.1355E+03
     52.451  0.0000E+00  0.1370E+03
     52.898  0.0000E+00  0.1378E+03
     53.345  0.0000E+00  0.1396E+03
     53.791  0.0000E+00  0.1410E+03
     54.238  0.0000E+00  0.1419E+03
     54.685  0.0000E+00  0.1436E+03
     55.132  0.2084E-08  0.1448E+03
     55.578  0.0000E+00  0.1468E+03
     56.025  0.0000E+00  0.1473E+03
     56.472  0.0000E+00  0.1486E+03
     56.918  0.0000E+00  0.1507E+03
     57.365  0.0000E+00  0.1524E+03
     57.812  0.2927E+00  0.1542E+03
     58.259  0.0000E+00  0.1551E+03
     58.705  0.0000E+00  0.1569E+03
     59.152  0.0000E+00  0.1584E+03
     59.599  0.4974E+00  0.1597E+03
     60.046  0.0000E+00  0.1609E+03
     60.492  0.2487E+00  0.1633E+03
     60.939  0.2761E-16  0.1653E+03
     61.386  0.4974E+00  0.1671E+03
     61.832  0.0000E+00  0.1690E+03
     62.279  0.0000E+00  0.1699E+03
     62.726  0.0000E+00  0.1710E+03
     63.173  0.0000E+00  0.1725E+03
     63.619  0.0000E+00  0.1736E+03
     64.066  0.0000E+00  0.1752E+03
     64.513  0.0000E+00  0.1766E+03
     64.959  0.2153E+00  0.1783E+03
     65.406  0.0000E+00  0.1799E+03
     65.853  0.0000E+00  0.1814E+03
     66.300  0.0000E+00  0.1832E+03
     66.746  0.0000E+00  0.1852E+03
     67.193  0.0000E+00  0.1863E+03
     67.640  0.0000E+00  0.1876E+03
     68.087  0.0000E+00  0.1894E+03
     68.533  0.4974E+00  0.1905E+03
     68.980  0.0000E+00  0.1920E+03
     69.427  0.0000E+00  0.1931E+03
     69.873  0.0000E+00  0.1945E+03
     70.320  0.0000E+00  0.1949E+03
     70.767  0.0000E+00  0.1956E+03
     71.214  0.0000E+00  0.1957E+03
     71.660  0.0000E+00  0.1960E+03
     72.107  0.0000E+00  0.1960E+03
     72.554  0.0000E+00  0.1960E+03
     73.001  0.0000E+00  0.1960E+03
     73.447  0.0000E+00  0.1960E+03
     73.894  0.0000E+00  0.1960E+03
     74.341  0.0000E+00  0.1960E+03
     74.787  0.0000E+00  0.1960E+03
     75.234  0.0000E+00  0.1960E+03
     75.681  0.0000E+00  0.1960E+03
     76.128  0.0000E+00  0.1960E+03
     76.574  0.0000E+00  0.1960E+03
     77.021  0.0000E+00  0.1960E+03
     77.468  0.0000E+00  0.1960E+03
