   1   1   0   0
  0.6156630E+02  0.4432200E-09  0.4432200E-09  0.4432200E-09  0.1000000E-15
  1.000000000000000E-004
  CAR 
 Og_FCC                                  
     58.47334202    -20.76588484  301     -3.99358182      1.00000000
    -20.766  0.0000E+00  0.0000E+00
    -20.502  0.0000E+00  0.0000E+00
    -20.238  0.0000E+00  0.0000E+00
    -19.973  0.0000E+00  0.0000E+00
    -19.709  0.0000E+00  0.0000E+00
    -19.445  0.0000E+00  0.0000E+00
    -19.181  0.0000E+00  0.0000E+00
    -18.917  0.0000E+00  0.0000E+00
    -18.653  0.0000E+00  0.0000E+00
    -18.389  0.0000E+00  0.0000E+00
    -18.125  0.0000E+00  0.0000E+00
    -17.860  0.0000E+00  0.0000E+00
    -17.596  0.0000E+00  0.0000E+00
    -17.332  0.0000E+00  0.0000E+00
    -17.068  0.0000E+00  0.1389E+00
    -16.804  0.0000E+00  0.2000E+01
    -16.540  0.0000E+00  0.2000E+01
    -16.276  0.0000E+00  0.2000E+01
    -16.012  0.0000E+00  0.2000E+01
    -15.747  0.0000E+00  0.2000E+01
    -15.483  0.0000E+00  0.2000E+01
    -15.219  0.0000E+00  0.2000E+01
    -14.955  0.0000E+00  0.2000E+01
    -14.691  0.0000E+00  0.2000E+01
    -14.427  0.0000E+00  0.2000E+01
    -14.163  0.0000E+00  0.2000E+01
    -13.898  0.0000E+00  0.2000E+01
    -13.634  0.0000E+00  0.2000E+01
    -13.370  0.0000E+00  0.2000E+01
    -13.106  0.0000E+00  0.2000E+01
    -12.842  0.0000E+00  0.2000E+01
    -12.578  0.0000E+00  0.2000E+01
    -12.314  0.0000E+00  0.2000E+01
    -12.050  0.0000E+00  0.2000E+01
    -11.785  0.0000E+00  0.2000E+01
    -11.521  0.0000E+00  0.2000E+01
    -11.257  0.0000E+00  0.2000E+01
    -10.993  0.0000E+00  0.2000E+01
    -10.729  0.0000E+00  0.2000E+01
    -10.465  0.0000E+00  0.2000E+01
    -10.201  0.0000E+00  0.2000E+01
     -9.937  0.0000E+00  0.2000E+01
     -9.672  0.0000E+00  0.2000E+01
     -9.408  0.0000E+00  0.2000E+01
     -9.144  0.0000E+00  0.2000E+01
     -8.880  0.0000E+00  0.2000E+01
     -8.616  0.0000E+00  0.2000E+01
     -8.352  0.0000E+00  0.2000E+01
     -8.088  0.0000E+00  0.2000E+01
     -7.823  0.0000E+00  0.2000E+01
     -7.559  0.0000E+00  0.2000E+01
     -7.295  0.0000E+00  0.2000E+01
     -7.031  0.0000E+00  0.2000E+01
     -6.767  0.0000E+00  0.2000E+01
     -6.503  0.0000E+00  0.2000E+01
     -6.239  0.0000E+00  0.2000E+01
     -5.975  0.0000E+00  0.3454E+01
     -5.710  0.0000E+00  0.3861E+01
     -5.446  0.0000E+00  0.3991E+01
     -5.182  0.0000E+00  0.4000E+01
     -4.918  0.0000E+00  0.5139E+01
     -4.654  0.0000E+00  0.5861E+01
     -4.390  0.9575E-11  0.6833E+01
     -4.126  0.0000E+00  0.7907E+01
     -3.862  0.0000E+00  0.8000E+01
     -3.597  0.0000E+00  0.8000E+01
     -3.333  0.0000E+00  0.8000E+01
     -3.069  0.0000E+00  0.8000E+01
     -2.805  0.0000E+00  0.8000E+01
     -2.541  0.0000E+00  0.8000E+01
     -2.277  0.0000E+00  0.8000E+01
     -2.013  0.0000E+00  0.8000E+01
     -1.748  0.0000E+00  0.8000E+01
     -1.484  0.0000E+00  0.8000E+01
     -1.220  0.0000E+00  0.8000E+01
     -0.956  0.0000E+00  0.8000E+01
     -0.692  0.0000E+00  0.8000E+01
     -0.428  0.0000E+00  0.8000E+01
     -0.164  0.0000E+00  0.8000E+01
      0.100  0.0000E+00  0.8000E+01
      0.365  0.0000E+00  0.8000E+01
      0.629  0.0000E+00  0.8000E+01
      0.893  0.0000E+00  0.8000E+01
      1.157  0.0000E+00  0.8000E+01
      1.421  0.0000E+00  0.8000E+01
      1.685  0.0000E+00  0.8000E+01
      1.949  0.0000E+00  0.8000E+01
      2.213  0.0000E+00  0.8000E+01
      2.478  0.0000E+00  0.8009E+01
      2.742  0.0000E+00  0.8009E+01
      3.006  0.0000E+00  0.8009E+01
      3.270  0.0000E+00  0.8083E+01
      3.534  0.2573E-08  0.8139E+01
      3.798  0.0000E+00  0.8167E+01
      4.062  0.0000E+00  0.8667E+01
      4.327  0.0000E+00  0.9000E+01
      4.591  0.6081E-14  0.9250E+01
      4.855  0.0000E+00  0.9806E+01
      5.119  0.0000E+00  0.1031E+02
      5.383  0.0000E+00  0.1042E+02
      5.647  0.0000E+00  0.1142E+02
      5.911  0.0000E+00  0.1164E+02
      6.175  0.0000E+00  0.1203E+02
      6.440  0.2804E+00  0.1218E+02
      6.704  0.4195E+00  0.1299E+02
      6.968  0.0000E+00  0.1344E+02
      7.232  0.2804E+00  0.1404E+02
      7.496  0.0000E+00  0.1461E+02
      7.760  0.0000E+00  0.1506E+02
      8.024  0.0000E+00  0.1539E+02
      8.288  0.3147E-02  0.1561E+02
      8.553  0.0000E+00  0.1583E+02
      8.817  0.0000E+00  0.1601E+02
      9.081  0.0000E+00  0.1651E+02
      9.345  0.0000E+00  0.1703E+02
      9.609  0.2804E+00  0.1723E+02
      9.873  0.2584E-02  0.1757E+02
     10.137  0.0000E+00  0.1813E+02
     10.402  0.8150E-10  0.1857E+02
     10.666  0.0000E+00  0.1870E+02
     10.930  0.0000E+00  0.1870E+02
     11.194  0.0000E+00  0.1928E+02
     11.458  0.0000E+00  0.2031E+02
     11.722  0.0000E+00  0.2080E+02
     11.986  0.0000E+00  0.2130E+02
     12.250  0.0000E+00  0.2185E+02
     12.515  0.0000E+00  0.2269E+02
     12.779  0.0000E+00  0.2280E+02
     13.043  0.1107E+00  0.2312E+02
     13.307  0.0000E+00  0.2380E+02
     13.571  0.0000E+00  0.2394E+02
     13.835  0.0000E+00  0.2459E+02
     14.099  0.0000E+00  0.2504E+02
     14.364  0.8413E+00  0.2537E+02
     14.628  0.0000E+00  0.2544E+02
     14.892  0.1052E+00  0.2675E+02
     15.156  0.0000E+00  0.2694E+02
     15.420  0.0000E+00  0.2786E+02
     15.684  0.6281E-02  0.2847E+02
     15.948  0.0000E+00  0.2938E+02
     16.212  0.0000E+00  0.2986E+02
     16.477  0.0000E+00  0.3033E+02
     16.741  0.0000E+00  0.3100E+02
     17.005  0.0000E+00  0.3128E+02
     17.269  0.0000E+00  0.3225E+02
     17.533  0.0000E+00  0.3281E+02
     17.797  0.3017E-05  0.3309E+02
     18.061  0.0000E+00  0.3376E+02
     18.325  0.0000E+00  0.3487E+02
     18.590  0.4207E+00  0.3526E+02
     18.854  0.0000E+00  0.3626E+02
     19.118  0.0000E+00  0.3656E+02
     19.382  0.0000E+00  0.3778E+02
     19.646  0.0000E+00  0.3858E+02
     19.910  0.0000E+00  0.3943E+02
     20.174  0.0000E+00  0.3980E+02
     20.439  0.0000E+00  0.4007E+02
     20.703  0.0000E+00  0.4059E+02
     20.967  0.0000E+00  0.4137E+02
     21.231  0.0000E+00  0.4220E+02
     21.495  0.2804E+00  0.4335E+02
     21.759  0.0000E+00  0.4387E+02
     22.023  0.0000E+00  0.4505E+02
     22.287  0.0000E+00  0.4531E+02
     22.552  0.8828E-12  0.4632E+02
     22.816  0.0000E+00  0.4745E+02
     23.080  0.0000E+00  0.4764E+02
     23.344  0.0000E+00  0.4810E+02
     23.608  0.4206E+00  0.4830E+02
     23.872  0.0000E+00  0.4895E+02
     24.136  0.4207E+00  0.4988E+02
     24.400  0.2703E+00  0.5009E+02
     24.665  0.0000E+00  0.5141E+02
     24.929  0.0000E+00  0.5174E+02
     25.193  0.0000E+00  0.5260E+02
     25.457  0.4131E+00  0.5325E+02
     25.721  0.0000E+00  0.5336E+02
     25.985  0.1107E+00  0.5415E+02
     26.249  0.0000E+00  0.5474E+02
     26.514  0.0000E+00  0.5584E+02
     26.778  0.6284E+00  0.5679E+02
     27.042  0.0000E+00  0.5776E+02
     27.306  0.0000E+00  0.5809E+02
     27.570  0.2804E+00  0.5881E+02
     27.834  0.0000E+00  0.5948E+02
     28.098  0.0000E+00  0.6049E+02
     28.362  0.0000E+00  0.6079E+02
     28.627  0.0000E+00  0.6130E+02
     28.891  0.0000E+00  0.6174E+02
     29.155  0.0000E+00  0.6219E+02
     29.419  0.0000E+00  0.6263E+02
     29.683  0.3524E-11  0.6307E+02
     29.947  0.0000E+00  0.6385E+02
     30.211  0.3393E-01  0.6471E+02
     30.475  0.0000E+00  0.6557E+02
     30.740  0.0000E+00  0.6613E+02
     31.004  0.3503E-16  0.6676E+02
     31.268  0.0000E+00  0.6765E+02
     31.532  0.2103E+00  0.6838E+02
     31.796  0.4628E+00  0.6878E+02
     32.060  0.2804E+00  0.6968E+02
     32.324  0.0000E+00  0.7029E+02
     32.589  0.2103E+00  0.7132E+02
     32.853  0.0000E+00  0.7184E+02
     33.117  0.0000E+00  0.7236E+02
     33.381  0.0000E+00  0.7321E+02
     33.645  0.0000E+00  0.7396E+02
     33.909  0.0000E+00  0.7463E+02
     34.173  0.0000E+00  0.7530E+02
     34.437  0.0000E+00  0.7626E+02
     34.702  0.0000E+00  0.7672E+02
     34.966  0.4041E+00  0.7768E+02
     35.230  0.0000E+00  0.7791E+02
     35.494  0.0000E+00  0.7882E+02
     35.758  0.0000E+00  0.7890E+02
     36.022  0.0000E+00  0.7942E+02
     36.286  0.0000E+00  0.7969E+02
     36.550  0.2395E-09  0.8029E+02
     36.815  0.0000E+00  0.8095E+02
     37.079  0.1198E-01  0.8150E+02
     37.343  0.0000E+00  0.8294E+02
     37.607  0.0000E+00  0.8375E+02
     37.871  0.0000E+00  0.8447E+02
     38.135  0.0000E+00  0.8494E+02
     38.399  0.0000E+00  0.8575E+02
     38.664  0.0000E+00  0.8664E+02
     38.928  0.8413E+00  0.8797E+02
     39.192  0.2103E+00  0.8831E+02
     39.456  0.0000E+00  0.8835E+02
     39.720  0.0000E+00  0.9037E+02
     39.984  0.0000E+00  0.9072E+02
     40.248  0.2103E+00  0.9148E+02
     40.512  0.2752E-06  0.9209E+02
     40.777  0.0000E+00  0.9335E+02
     41.041  0.0000E+00  0.9394E+02
     41.305  0.0000E+00  0.9511E+02
     41.569  0.0000E+00  0.9533E+02
     41.833  0.0000E+00  0.9557E+02
     42.097  0.0000E+00  0.9624E+02
     42.361  0.0000E+00  0.9713E+02
     42.625  0.0000E+00  0.9780E+02
     42.890  0.4684E-06  0.9825E+02
     43.154  0.0000E+00  0.9900E+02
     43.418  0.0000E+00  0.9947E+02
     43.682  0.0000E+00  0.1004E+03
     43.946  0.0000E+00  0.1013E+03
     44.210  0.0000E+00  0.1020E+03
     44.474  0.0000E+00  0.1035E+03
     44.739  0.0000E+00  0.1039E+03
     45.003  0.0000E+00  0.1052E+03
     45.267  0.0000E+00  0.1057E+03
     45.531  0.3033E+00  0.1067E+03
     45.795  0.0000E+00  0.1074E+03
     46.059  0.5628E-02  0.1078E+03
     46.323  0.0000E+00  0.1083E+03
     46.587  0.8413E+00  0.1092E+03
     46.852  0.0000E+00  0.1095E+03
     47.116  0.0000E+00  0.1105E+03
     47.380  0.2792E-06  0.1107E+03
     47.644  0.0000E+00  0.1119E+03
     47.908  0.0000E+00  0.1129E+03
     48.172  0.2262E-11  0.1135E+03
     48.436  0.4207E+00  0.1146E+03
     48.701  0.0000E+00  0.1148E+03
     48.965  0.8236E+00  0.1154E+03
     49.229  0.0000E+00  0.1164E+03
     49.493  0.0000E+00  0.1168E+03
     49.757  0.0000E+00  0.1181E+03
     50.021  0.0000E+00  0.1182E+03
     50.285  0.8413E+00  0.1189E+03
     50.549  0.0000E+00  0.1206E+03
     50.814  0.0000E+00  0.1212E+03
     51.078  0.1052E+00  0.1216E+03
     51.342  0.1009E-02  0.1227E+03
     51.606  0.0000E+00  0.1240E+03
     51.870  0.0000E+00  0.1245E+03
     52.134  0.0000E+00  0.1252E+03
     52.398  0.0000E+00  0.1255E+03
     52.662  0.2771E-05  0.1260E+03
     52.927  0.0000E+00  0.1268E+03
     53.191  0.0000E+00  0.1271E+03
     53.455  0.0000E+00  0.1277E+03
     53.719  0.0000E+00  0.1279E+03
     53.983  0.0000E+00  0.1279E+03
     54.247  0.0000E+00  0.1279E+03
     54.511  0.0000E+00  0.1279E+03
     54.776  0.0000E+00  0.1279E+03
     55.040  0.0000E+00  0.1280E+03
     55.304  0.0000E+00  0.1280E+03
     55.568  0.0000E+00  0.1280E+03
     55.832  0.0000E+00  0.1280E+03
     56.096  0.0000E+00  0.1280E+03
     56.360  0.0000E+00  0.1280E+03
     56.624  0.0000E+00  0.1280E+03
     56.889  0.0000E+00  0.1280E+03
     57.153  0.0000E+00  0.1280E+03
     57.417  0.0000E+00  0.1280E+03
     57.681  0.0000E+00  0.1280E+03
     57.945  0.0000E+00  0.1280E+03
     58.209  0.0000E+00  0.1280E+03
     58.473  0.0000E+00  0.1280E+03
