   1   1   0   0
  0.6400541E+02  0.4489975E-09  0.4489975E-09  0.4489975E-09  0.1000000E-15
  1.000000000000000E-004
  CAR 
 Og_FCC                                  
     14.89579662    -31.03609235  301      0.79586534      1.00000000
    -31.036  0.0000E+00  0.0000E+00
    -30.883  0.0000E+00  0.0000E+00
    -30.730  0.0000E+00  0.0000E+00
    -30.577  0.0000E+00  0.0000E+00
    -30.424  0.0000E+00  0.0000E+00
    -30.271  0.0000E+00  0.0000E+00
    -30.117  0.0000E+00  0.0000E+00
    -29.964  0.0000E+00  0.0000E+00
    -29.811 -0.3646E-30 -0.5582E-31
    -29.658 -0.9670E-20 -0.1481E-20
    -29.505 -0.2188E-11 -0.3350E-12
    -29.352 -0.4243E-05 -0.6497E-06
    -29.199 -0.6103E-01 -0.9344E-02
    -29.046 -0.1683E+01 -0.2671E+00
    -28.893  0.5906E+02  0.8775E+01
    -28.739  0.8450E+01  0.1007E+02
    -28.586 -0.4507E+00  0.1000E+02
    -28.433 -0.1714E-03  0.1000E+02
    -28.280 -0.4328E-09  0.1000E+02
    -28.127  0.0000E+00  0.1000E+02
    -27.974  0.0000E+00  0.1000E+02
    -27.821  0.0000E+00  0.1000E+02
    -27.668  0.0000E+00  0.1000E+02
    -27.515  0.0000E+00  0.1000E+02
    -27.362  0.0000E+00  0.1000E+02
    -27.208  0.0000E+00  0.1000E+02
    -27.055  0.0000E+00  0.1000E+02
    -26.902  0.0000E+00  0.1000E+02
    -26.749  0.0000E+00  0.1000E+02
    -26.596  0.0000E+00  0.1000E+02
    -26.443  0.0000E+00  0.1000E+02
    -26.290  0.0000E+00  0.1000E+02
    -26.137  0.0000E+00  0.1000E+02
    -25.984  0.0000E+00  0.1000E+02
    -25.830  0.0000E+00  0.1000E+02
    -25.677  0.0000E+00  0.1000E+02
    -25.524  0.0000E+00  0.1000E+02
    -25.371  0.0000E+00  0.1000E+02
    -25.218  0.0000E+00  0.1000E+02
    -25.065  0.0000E+00  0.1000E+02
    -24.912  0.0000E+00  0.1000E+02
    -24.759  0.0000E+00  0.1000E+02
    -24.606  0.0000E+00  0.1000E+02
    -24.453  0.0000E+00  0.1000E+02
    -24.299  0.0000E+00  0.1000E+02
    -24.146  0.0000E+00  0.1000E+02
    -23.993  0.0000E+00  0.1000E+02
    -23.840  0.0000E+00  0.1000E+02
    -23.687  0.0000E+00  0.1000E+02
    -23.534  0.0000E+00  0.1000E+02
    -23.381  0.0000E+00  0.1000E+02
    -23.228  0.0000E+00  0.1000E+02
    -23.075  0.0000E+00  0.1000E+02
    -22.921  0.0000E+00  0.1000E+02
    -22.768 -0.1256E-29  0.1000E+02
    -22.615 -0.1145E-19  0.1000E+02
    -22.462 -0.9789E-12  0.1000E+02
    -22.309 -0.8644E-06  0.1000E+02
    -22.156 -0.8104E-02  0.9999E+01
    -22.003 -0.3527E+00  0.9945E+01
    -21.850  0.1020E+02  0.1151E+02
    -21.697  0.3396E+01  0.1203E+02
    -21.544 -0.1695E+00  0.1200E+02
    -21.390 -0.1719E-03  0.1200E+02
    -21.237 -0.1143E-08  0.1200E+02
    -21.084  0.0000E+00  0.1200E+02
    -20.931  0.0000E+00  0.1200E+02
    -20.778  0.0000E+00  0.1200E+02
    -20.625  0.0000E+00  0.1200E+02
    -20.472  0.0000E+00  0.1200E+02
    -20.319  0.0000E+00  0.1200E+02
    -20.166  0.0000E+00  0.1200E+02
    -20.012  0.0000E+00  0.1200E+02
    -19.859  0.0000E+00  0.1200E+02
    -19.706  0.0000E+00  0.1200E+02
    -19.553  0.0000E+00  0.1200E+02
    -19.400  0.0000E+00  0.1200E+02
    -19.247  0.0000E+00  0.1200E+02
    -19.094  0.0000E+00  0.1200E+02
    -18.941  0.0000E+00  0.1200E+02
    -18.788  0.0000E+00  0.1200E+02
    -18.634  0.0000E+00  0.1200E+02
    -18.481  0.0000E+00  0.1200E+02
    -18.328  0.0000E+00  0.1200E+02
    -18.175  0.0000E+00  0.1200E+02
    -18.022  0.0000E+00  0.1200E+02
    -17.869  0.0000E+00  0.1200E+02
    -17.716  0.0000E+00  0.1200E+02
    -17.563  0.0000E+00  0.1200E+02
    -17.410  0.0000E+00  0.1200E+02
    -17.257  0.0000E+00  0.1200E+02
    -17.103  0.0000E+00  0.1200E+02
    -16.950  0.0000E+00  0.1200E+02
    -16.797  0.0000E+00  0.1200E+02
    -16.644  0.0000E+00  0.1200E+02
    -16.491  0.0000E+00  0.1200E+02
    -16.338  0.0000E+00  0.1200E+02
    -16.185  0.0000E+00  0.1200E+02
    -16.032  0.0000E+00  0.1200E+02
    -15.879  0.0000E+00  0.1200E+02
    -15.725  0.0000E+00  0.1200E+02
    -15.572  0.0000E+00  0.1200E+02
    -15.419  0.0000E+00  0.1200E+02
    -15.266  0.0000E+00  0.1200E+02
    -15.113  0.0000E+00  0.1200E+02
    -14.960  0.0000E+00  0.1200E+02
    -14.807  0.0000E+00  0.1200E+02
    -14.654  0.0000E+00  0.1200E+02
    -14.501  0.0000E+00  0.1200E+02
    -14.348  0.0000E+00  0.1200E+02
    -14.194  0.0000E+00  0.1200E+02
    -14.041  0.0000E+00  0.1200E+02
    -13.888  0.0000E+00  0.1200E+02
    -13.735  0.0000E+00  0.1200E+02
    -13.582  0.0000E+00  0.1200E+02
    -13.429  0.0000E+00  0.1200E+02
    -13.276  0.0000E+00  0.1200E+02
    -13.123  0.0000E+00  0.1200E+02
    -12.970  0.0000E+00  0.1200E+02
    -12.816  0.0000E+00  0.1200E+02
    -12.663  0.0000E+00  0.1200E+02
    -12.510  0.0000E+00  0.1200E+02
    -12.357  0.0000E+00  0.1200E+02
    -12.204  0.0000E+00  0.1200E+02
    -12.051  0.0000E+00  0.1200E+02
    -11.898  0.0000E+00  0.1200E+02
    -11.745  0.0000E+00  0.1200E+02
    -11.592  0.0000E+00  0.1200E+02
    -11.438  0.0000E+00  0.1200E+02
    -11.285  0.0000E+00  0.1200E+02
    -11.132  0.0000E+00  0.1200E+02
    -10.979  0.0000E+00  0.1200E+02
    -10.826  0.0000E+00  0.1200E+02
    -10.673  0.0000E+00  0.1200E+02
    -10.520  0.0000E+00  0.1200E+02
    -10.367  0.0000E+00  0.1200E+02
    -10.214  0.0000E+00  0.1200E+02
    -10.061  0.0000E+00  0.1200E+02
     -9.907  0.0000E+00  0.1200E+02
     -9.754  0.0000E+00  0.1200E+02
     -9.601  0.0000E+00  0.1200E+02
     -9.448  0.0000E+00  0.1200E+02
     -9.295  0.0000E+00  0.1200E+02
     -9.142  0.0000E+00  0.1200E+02
     -8.989  0.0000E+00  0.1200E+02
     -8.836  0.0000E+00  0.1200E+02
     -8.683  0.0000E+00  0.1200E+02
     -8.529  0.0000E+00  0.1200E+02
     -8.376  0.0000E+00  0.1200E+02
     -8.223  0.0000E+00  0.1200E+02
     -8.070  0.0000E+00  0.1200E+02
     -7.917  0.0000E+00  0.1200E+02
     -7.764  0.0000E+00  0.1200E+02
     -7.611  0.0000E+00  0.1200E+02
     -7.458  0.0000E+00  0.1200E+02
     -7.305  0.0000E+00  0.1200E+02
     -7.152  0.0000E+00  0.1200E+02
     -6.998  0.0000E+00  0.1200E+02
     -6.845  0.0000E+00  0.1200E+02
     -6.692  0.0000E+00  0.1200E+02
     -6.539  0.0000E+00  0.1200E+02
     -6.386  0.0000E+00  0.1200E+02
     -6.233  0.0000E+00  0.1200E+02
     -6.080  0.0000E+00  0.1200E+02
     -5.927  0.0000E+00  0.1200E+02
     -5.774  0.0000E+00  0.1200E+02
     -5.620  0.0000E+00  0.1200E+02
     -5.467  0.0000E+00  0.1200E+02
     -5.314  0.0000E+00  0.1200E+02
     -5.161  0.0000E+00  0.1200E+02
     -5.008  0.0000E+00  0.1200E+02
     -4.855  0.0000E+00  0.1200E+02
     -4.702  0.0000E+00  0.1200E+02
     -4.549  0.0000E+00  0.1200E+02
     -4.396  0.0000E+00  0.1200E+02
     -4.242  0.0000E+00  0.1200E+02
     -4.089  0.0000E+00  0.1200E+02
     -3.936  0.0000E+00  0.1200E+02
     -3.783  0.0000E+00  0.1200E+02
     -3.630  0.0000E+00  0.1200E+02
     -3.477  0.0000E+00  0.1200E+02
     -3.324  0.0000E+00  0.1200E+02
     -3.171  0.0000E+00  0.1200E+02
     -3.018  0.0000E+00  0.1200E+02
     -2.865  0.0000E+00  0.1200E+02
     -2.711 -0.1635E-37  0.1200E+02
     -2.558 -0.2844E-26  0.1200E+02
     -2.405 -0.4410E-17  0.1200E+02
     -2.252 -0.5831E-10  0.1200E+02
     -2.099 -0.6959E-05  0.1200E+02
     -1.946 -0.6426E-02  0.1200E+02
     -1.793  0.1114E+00  0.1202E+02
     -1.640  0.6700E+00  0.1212E+02
     -1.487  0.2389E+01  0.1248E+02
     -1.333  0.4076E+01  0.1311E+02
     -1.180  0.2965E+01  0.1356E+02
     -1.027  0.1167E+01  0.1374E+02
     -0.874  0.9096E+00  0.1388E+02
     -0.721  0.1692E+01  0.1414E+02
     -0.568  0.1298E+01  0.1434E+02
     -0.415  0.1915E+01  0.1463E+02
     -0.262  0.1762E+01  0.1490E+02
     -0.109  0.3752E+01  0.1548E+02
      0.044  0.2756E+01  0.1590E+02
      0.198  0.4253E+01  0.1655E+02
      0.351  0.3579E+01  0.1710E+02
      0.504  0.3376E+01  0.1761E+02
      0.657  0.1871E+01  0.1790E+02
      0.810  0.6680E+00  0.1800E+02
      0.963 -0.1227E-01  0.1800E+02
      1.116 -0.1017E-02  0.1800E+02
      1.269 -0.1922E-06  0.1800E+02
      1.422 -0.3703E-12  0.1800E+02
      1.576  0.0000E+00  0.1800E+02
      1.729  0.0000E+00  0.1800E+02
      1.882  0.0000E+00  0.1800E+02
      2.035 -0.4717E-35  0.1800E+02
      2.188 -0.2166E-24  0.1800E+02
      2.341 -0.8457E-16  0.1800E+02
      2.494 -0.2864E-09  0.1800E+02
      2.647 -0.7317E-05  0.1800E+02
      2.800 -0.6245E-03  0.1800E+02
      2.954  0.1445E-01  0.1800E+02
      3.107  0.4314E-02  0.1800E+02
      3.260 -0.2123E-03  0.1800E+02
      3.413 -0.1467E-02  0.1800E+02
      3.566  0.2957E-01  0.1801E+02
      3.719  0.1164E+00  0.1802E+02
      3.872  0.8185E-01  0.1804E+02
      4.025  0.2581E-01  0.1804E+02
      4.178 -0.3225E-02  0.1804E+02
      4.331  0.3892E-01  0.1805E+02
      4.485  0.1813E+00  0.1807E+02
      4.638  0.5149E-01  0.1808E+02
      4.791  0.4141E+00  0.1815E+02
      4.944  0.1101E+00  0.1816E+02
      5.097 -0.1230E-01  0.1816E+02
      5.250  0.1758E+00  0.1819E+02
      5.403  0.6280E+00  0.1828E+02
      5.556  0.4108E+00  0.1835E+02
      5.709  0.6992E+00  0.1845E+02
      5.863  0.1270E+01  0.1865E+02
      6.016  0.6754E+00  0.1875E+02
      6.169  0.5888E+00  0.1884E+02
      6.322  0.1354E+01  0.1905E+02
      6.475  0.1389E+01  0.1926E+02
      6.628  0.1499E+01  0.1949E+02
      6.781  0.1350E+01  0.1970E+02
      6.934  0.2665E+00  0.1974E+02
      7.087  0.5496E+00  0.1982E+02
      7.240  0.8978E+00  0.1996E+02
      7.394  0.7960E+00  0.2008E+02
      7.547  0.7461E+00  0.2020E+02
      7.700  0.4731E-01  0.2020E+02
      7.853  0.9650E+00  0.2035E+02
      8.006  0.7402E+00  0.2046E+02
      8.159  0.1947E+01  0.2076E+02
      8.312  0.3135E+01  0.2124E+02
      8.465  0.1278E+01  0.2144E+02
      8.618  0.1065E+01  0.2160E+02
      8.772  0.3737E+01  0.2217E+02
      8.925  0.2735E+01  0.2259E+02
      9.078  0.6784E+00  0.2270E+02
      9.231  0.2083E+00  0.2273E+02
      9.384  0.4010E+00  0.2279E+02
      9.537  0.4007E+00  0.2285E+02
      9.690  0.1312E+01  0.2305E+02
      9.843  0.3203E+01  0.2354E+02
      9.996  0.2865E+01  0.2398E+02
     10.150  0.1820E+01  0.2426E+02
     10.303  0.2364E+01  0.2462E+02
     10.456  0.2162E+01  0.2495E+02
     10.609  0.1281E+01  0.2515E+02
     10.762  0.5307E+00  0.2523E+02
     10.915  0.8912E+00  0.2537E+02
     11.068  0.5615E+00  0.2545E+02
     11.221  0.2300E+00  0.2549E+02
     11.374  0.5286E+00  0.2557E+02
     11.527  0.5788E+00  0.2566E+02
     11.681  0.6950E+00  0.2576E+02
     11.834  0.5167E+00  0.2584E+02
     11.987  0.8400E+00  0.2597E+02
     12.140  0.8519E-01  0.2598E+02
     12.293 -0.5366E-02  0.2598E+02
     12.446 -0.3371E-05  0.2598E+02
     12.599 -0.6404E-03  0.2598E+02
     12.752  0.1143E-01  0.2599E+02
     12.905  0.9912E-01  0.2600E+02
     13.059 -0.2271E-02  0.2600E+02
     13.212 -0.1215E-03  0.2600E+02
     13.365 -0.9666E-08  0.2600E+02
     13.518 -0.5634E-14  0.2600E+02
     13.671  0.0000E+00  0.2600E+02
     13.824  0.0000E+00  0.2600E+02
     13.977  0.0000E+00  0.2600E+02
     14.130  0.0000E+00  0.2600E+02
     14.283  0.0000E+00  0.2600E+02
     14.436  0.0000E+00  0.2600E+02
     14.590  0.0000E+00  0.2600E+02
     14.743  0.0000E+00  0.2600E+02
     14.896  0.0000E+00  0.2600E+02
