    1    1    1    1
  0.5837391E+02  0.4354229E-09  0.4354229E-09  0.4354229E-09  0.1000000E-15
  1.000000000000000E-004
  CAR 
 Og_FCC                                  
     18    365     28
