<?xml version="1.0" encoding="ISO-8859-1"?>
<modeling>
 <generator>
  <i name="program" type="string">vasp </i>
  <i name="version" type="string">5.4.4.18Apr17-6-g9f103f2a35  </i>
  <i name="subversion" type="string">(build Jul 09 2018 16:27:08) complex            parallel </i>
  <i name="platform" type="string">LinuxIFC </i>
  <i name="date" type="string">2018 11 26 </i>
  <i name="time" type="string">01:47:37 </i>
 </generator>
 <incar>
  <i type="string" name="SYSTEM">   Og_FCC</i>
  <i type="string" name="PREC">accurate</i>
  <i type="string" name="ALGO">   Fast</i>
  <i type="logical" name="ADDGRID"> T  </i>
  <i type="logical" name="LSORBIT"> F  </i>
  <i type="int" name="ISPIN">     1</i>
  <i type="int" name="MAXMIX">    50</i>
  <i type="int" name="NELM">   100</i>
  <i type="int" name="NELMDL">    -5</i>
  <i type="int" name="NELMIN">     5</i>
  <i type="int" name="IBRION">    -1</i>
  <i type="int" name="NFREE">     5</i>
  <i name="EDIFF">      0.00000010</i>
  <i name="EDIFFG">      0.00001000</i>
  <i type="int" name="NSW">     1</i>
  <i type="int" name="ISIF">     7</i>
  <i type="int" name="ISYM">     2</i>
  <i name="SYMPREC">      0.00000010</i>
  <i name="ENCUT">    600.00000000</i>
  <i name="POTIM">      0.10000000</i>
  <i type="logical" name="LREAL"> F  </i>
  <i type="int" name="ISMEAR">     1</i>
  <i name="SIGMA">      0.10000000</i>
  <i name="KSPACING">      0.20000000</i>
  <i type="int" name="NWRITE">     2</i>
  <i type="logical" name="LWAVE"> F  </i>
  <i type="logical" name="LCHARG"> F  </i>
  <i type="logical" name="LVTOT"> F  </i>
  <i type="logical" name="GGA_COMPAT"> F  </i>
  <v type="int" name="KPOINT_BSE">    -1     0     0     0</v>
  <i type="int" name="NELM">   100</i>
  <i type="string" name="GGA"> PS</i>
 </incar>
 <structure name="primitive_cell" >
  <crystal>
   <varray name="basis" >
    <v>       4.48997469       0.00000000       0.00000000 </v>
    <v>       2.24498735       3.88843215      -0.00000000 </v>
    <v>       2.24498735       1.29614405       3.66604899 </v>
   </varray>
   <i name="volume">     64.00540968 </i>
   <varray name="rec_basis" >
    <v>       0.22271840      -0.12858653      -0.09092441 </v>
    <v>       0.00000000       0.25717306      -0.09092441 </v>
    <v>      -0.00000000       0.00000000       0.27277322 </v>
   </varray>
  </crystal>
  <varray name="positions" >
   <v>       0.00000000       0.00000000       0.00000000 </v>
  </varray>
 </structure>
 <varray name="primitive_index" >
  <v type="int" >        1 </v>
 </varray>
 <kpoints>
  <generation param="Gamma">
   <v type="int" name="divisions">       9        9        9 </v>
   <v name="usershift">      0.00000000       0.00000000       0.00000000 </v>
   <v name="genvec1">      0.11111111       0.00000000      -0.00000000 </v>
   <v name="genvec2">      0.00000000       0.11111111       0.00000000 </v>
   <v name="genvec3">      0.00000000       0.00000000       0.11111111 </v>
   <v name="shift">      0.00000000       0.00000000       0.00000000 </v>
  </generation>
  <varray name="kpointlist" >
   <v>       0.00000000       0.00000000       0.00000000 </v>
   <v>       0.11111111       0.00000000       0.00000000 </v>
   <v>       0.22222222       0.00000000       0.00000000 </v>
   <v>       0.33333333      -0.00000000       0.00000000 </v>
   <v>       0.44444444       0.00000000       0.00000000 </v>
   <v>       0.11111111       0.11111111       0.00000000 </v>
   <v>       0.22222222       0.11111111       0.00000000 </v>
   <v>       0.33333333       0.11111111       0.00000000 </v>
   <v>       0.44444444       0.11111111       0.00000000 </v>
   <v>      -0.44444444       0.11111111      -0.00000000 </v>
   <v>      -0.33333333       0.11111111      -0.00000000 </v>
   <v>      -0.22222222       0.11111111      -0.00000000 </v>
   <v>      -0.11111111       0.11111111      -0.00000000 </v>
   <v>       0.22222222       0.22222222       0.00000000 </v>
   <v>       0.33333333       0.22222222       0.00000000 </v>
   <v>       0.44444444       0.22222222       0.00000000 </v>
   <v>      -0.44444444       0.22222222      -0.00000000 </v>
   <v>      -0.33333333       0.22222222      -0.00000000 </v>
   <v>      -0.22222222       0.22222222      -0.00000000 </v>
   <v>       0.33333333       0.33333333       0.00000000 </v>
   <v>       0.44444444       0.33333333       0.00000000 </v>
   <v>      -0.44444444       0.33333333      -0.00000000 </v>
   <v>      -0.33333333       0.33333333       0.00000000 </v>
   <v>       0.44444444       0.44444444       0.00000000 </v>
   <v>      -0.44444444       0.44444444      -0.00000000 </v>
   <v>       0.33333333       0.22222222       0.11111111 </v>
   <v>       0.44444444       0.22222222       0.11111111 </v>
   <v>      -0.44444444       0.22222222       0.11111111 </v>
   <v>       0.44444444       0.33333333       0.11111111 </v>
   <v>      -0.44444444       0.33333333       0.11111111 </v>
   <v>      -0.33333333       0.33333333       0.11111111 </v>
   <v>      -0.22222222       0.33333333       0.11111111 </v>
   <v>      -0.44444444       0.44444444       0.11111111 </v>
   <v>      -0.33333333       0.44444444       0.11111111 </v>
   <v>      -0.33333333       0.44444444       0.22222222 </v>
  </varray>
  <varray name="weights" >
   <v>       0.00137174 </v>
   <v>       0.01097394 </v>
   <v>       0.01097394 </v>
   <v>       0.01097394 </v>
   <v>       0.01097394 </v>
   <v>       0.00823045 </v>
   <v>       0.03292181 </v>
   <v>       0.03292181 </v>
   <v>       0.03292181 </v>
   <v>       0.03292181 </v>
   <v>       0.03292181 </v>
   <v>       0.03292181 </v>
   <v>       0.01646091 </v>
   <v>       0.00823045 </v>
   <v>       0.03292181 </v>
   <v>       0.03292181 </v>
   <v>       0.03292181 </v>
   <v>       0.03292181 </v>
   <v>       0.01646091 </v>
   <v>       0.00823045 </v>
   <v>       0.03292181 </v>
   <v>       0.03292181 </v>
   <v>       0.01646091 </v>
   <v>       0.00823045 </v>
   <v>       0.01646091 </v>
   <v>       0.03292181 </v>
   <v>       0.06584362 </v>
   <v>       0.06584362 </v>
   <v>       0.03292181 </v>
   <v>       0.06584362 </v>
   <v>       0.06584362 </v>
   <v>       0.03292181 </v>
   <v>       0.03292181 </v>
   <v>       0.03292181 </v>
   <v>       0.03292181 </v>
  </varray>
 </kpoints>
 <parameters>
  <separator name="general" >
   <i type="string" name="SYSTEM">Og_FCC</i>
   <i type="logical" name="LCOMPAT"> F  </i>
  </separator>
  <separator name="electronic" >
   <i type="string" name="PREC">accura</i>
   <i name="ENMAX">    600.00000000</i>
   <i name="ENAUG">    361.02500000</i>
   <i name="EDIFF">      0.00000010</i>
   <i type="int" name="IALGO">    68</i>
   <i type="int" name="IWAVPR">    10</i>
   <i type="int" name="NBANDS">    13</i>
   <i name="NELECT">     18.00000000</i>
   <i type="int" name="TURBO">     0</i>
   <i type="int" name="IRESTART">     0</i>
   <i type="int" name="NREBOOT">     0</i>
   <i type="int" name="NMIN">     0</i>
   <i name="EREF">      0.00000000</i>
   <separator name="electronic smearing" >
    <i type="int" name="ISMEAR">     1</i>
    <i name="SIGMA">      0.10000000</i>
    <i name="KSPACING">      0.20000000</i>
    <i type="logical" name="KGAMMA"> T  </i>
   </separator>
   <separator name="electronic projectors" >
    <i type="logical" name="LREAL"> F  </i>
    <v name="ROPT">      0.00000000</v>
    <i type="int" name="LMAXPAW">  -100</i>
    <i type="int" name="LMAXMIX">     2</i>
    <i type="logical" name="NLSPLINE"> F  </i>
   </separator>
   <separator name="electronic startup" >
    <i type="int" name="ISTART">     0</i>
    <i type="int" name="ICHARG">     2</i>
    <i type="int" name="INIWAV">     1</i>
   </separator>
   <separator name="electronic spin" >
    <i type="int" name="ISPIN">     1</i>
    <i type="logical" name="LNONCOLLINEAR"> F  </i>
    <v name="MAGMOM">      1.00000000</v>
    <i name="NUPDOWN">     -1.00000000</i>
    <i type="logical" name="LSORBIT"> F  </i>
    <v name="SAXIS">      0.00000000      0.00000000      1.00000000</v>
    <i type="logical" name="LSPIRAL"> F  </i>
    <v name="QSPIRAL">      0.00000000      0.00000000      0.00000000</v>
    <i type="logical" name="LZEROZ"> F  </i>
   </separator>
   <separator name="electronic exchange-correlation" >
    <i type="logical" name="LASPH"> F  </i>
    <i type="logical" name="LMETAGGA"> F  </i>
   </separator>
   <separator name="electronic convergence" >
    <i type="int" name="NELM">   100</i>
    <i type="int" name="NELMDL">    -5</i>
    <i type="int" name="NELMIN">     5</i>
    <i name="ENINI">    600.00000000</i>
    <separator name="electronic convergence detail" >
     <i type="logical" name="LDIAG"> T  </i>
     <i type="logical" name="LSUBROT"> F  </i>
     <i name="WEIMIN">      0.00000000</i>
     <i name="EBREAK">      0.00000000</i>
     <i name="DEPER">      0.30000000</i>
     <i type="int" name="NRMM">     4</i>
     <i name="TIME">      0.40000000</i>
    </separator>
   </separator>
   <separator name="electronic mixer" >
    <i name="AMIX">      0.40000000</i>
    <i name="BMIX">      1.00000000</i>
    <i name="AMIN">      0.10000000</i>
    <i name="AMIX_MAG">      1.60000000</i>
    <i name="BMIX_MAG">      1.00000000</i>
    <separator name="electronic mixer details" >
     <i type="int" name="IMIX">     4</i>
     <i type="logical" name="MIXFIRST"> F  </i>
     <i type="int" name="MAXMIX">    50</i>
     <i name="WC">    100.00000000</i>
     <i type="int" name="INIMIX">     1</i>
     <i type="int" name="MIXPRE">     1</i>
     <i type="int" name="MREMOVE">     5</i>
    </separator>
   </separator>
   <separator name="electronic dipolcorrection" >
    <i type="logical" name="LDIPOL"> F  </i>
    <i type="logical" name="LMONO"> F  </i>
    <i type="int" name="IDIPOL">     0</i>
    <i name="EPSILON">      1.00000000</i>
    <v name="DIPOL">   -100.00000000   -100.00000000   -100.00000000</v>
    <i name="EFIELD">      0.00000000</i>
   </separator>
  </separator>
  <separator name="grids" >
   <i type="int" name="NGX">    36</i>
   <i type="int" name="NGY">    36</i>
   <i type="int" name="NGZ">    36</i>
   <i type="int" name="NGXF">    72</i>
   <i type="int" name="NGYF">    72</i>
   <i type="int" name="NGZF">    72</i>
   <i type="logical" name="ADDGRID"> T  </i>
  </separator>
  <separator name="ionic" >
   <i type="int" name="NSW">     1</i>
   <i type="int" name="IBRION">    -1</i>
   <i type="int" name="MDALGO">     0</i>
   <i type="int" name="ISIF">     7</i>
   <i name="PSTRESS">      0.00000000</i>
   <i name="EDIFFG">      0.00001000</i>
   <i type="int" name="NFREE">     5</i>
   <i name="POTIM">      0.10000000</i>
   <i name="SMASS">     -3.00000000</i>
   <i name="SCALEE">      1.00000000</i>
  </separator>
  <separator name="ionic md" >
   <i name="TEBEG">      0.00010000</i>
   <i name="TEEND">      0.00010000</i>
   <i type="int" name="NBLOCK">     1</i>
   <i type="int" name="KBLOCK">     1</i>
   <i type="int" name="NPACO">   256</i>
   <i name="APACO">     16.00000000</i>
  </separator>
  <separator name="symmetry" >
   <i type="int" name="ISYM">     2</i>
   <i name="SYMPREC">      0.00000010</i>
  </separator>
  <separator name="dos" >
   <i type="int" name="LORBIT">     0</i>
   <v name="RWIGS">     -1.00000000</v>
   <i type="int" name="NEDOS">   301</i>
   <i name="EMIN">     10.00000000</i>
   <i name="EMAX">    -10.00000000</i>
   <i name="EFERMI">      0.00000000</i>
  </separator>
  <separator name="writing" >
   <i type="int" name="NWRITE">     2</i>
   <i type="logical" name="LWAVE"> F  </i>
   <i type="logical" name="LDOWNSAMPLE"> F  </i>
   <i type="logical" name="LCHARG"> F  </i>
   <i type="logical" name="LPARD"> F  </i>
   <i type="logical" name="LVTOT"> F  </i>
   <i type="logical" name="LVHAR"> F  </i>
   <i type="logical" name="LELF"> F  </i>
   <i type="logical" name="LOPTICS"> F  </i>
   <v name="STM">      0.00000000      0.00000000      0.00000000      0.00000000      0.00000000      0.00000000      0.00000000</v>
  </separator>
  <separator name="performance" >
   <i type="int" name="NPAR">     1</i>
   <i type="int" name="NSIM">     4</i>
   <i type="int" name="NBLK">    -1</i>
   <i type="logical" name="LPLANE"> T  </i>
   <i type="logical" name="LSCALAPACK"> T  </i>
   <i type="logical" name="LSCAAWARE"> F  </i>
   <i type="logical" name="LSCALU"> F  </i>
   <i type="logical" name="LASYNC"> F  </i>
   <i type="logical" name="LORBITALREAL"> F  </i>
  </separator>
  <separator name="miscellaneous" >
   <i type="int" name="IDIOT">     3</i>
   <i type="int" name="ISPECIAL">     0</i>
   <i type="logical" name="LMUSIC"> F  </i>
   <v name="POMASS">      0.01000000</v>
   <v name="DARWINR">      0.00000000</v>
   <v name="DARWINV">      1.00000000</v>
   <i type="logical" name="LCORR"> T  </i>
  </separator>
  <i type="logical" name="GGA_COMPAT"> F  </i>
  <i type="logical" name="LBERRY"> F  </i>
  <i type="int" name="ICORELEVEL">     0</i>
  <i type="logical" name="LDAU"> F  </i>
  <i type="int" name="I_CONSTRAINED_M">     0</i>
  <separator name="electronic exchange-correlation" >
   <i type="string" name="GGA">PS</i>
   <i type="int" name="VOSKOWN">     0</i>
   <i type="logical" name="LHFCALC"> F  </i>
   <i type="string" name="PRECFOCK"></i>
   <i type="logical" name="LSYMGRAD"> F  </i>
   <i type="logical" name="LHFONE"> F  </i>
   <i type="logical" name="LRHFCALC"> F  </i>
   <i type="logical" name="LTHOMAS"> F  </i>
   <i type="logical" name="LMODELHF"> F  </i>
   <i name="ENCUT4O">     -1.00000000</i>
   <i type="int" name="EXXOEP">     0</i>
   <i type="int" name="FOURORBIT">     0</i>
   <i name="AEXX">      0.00000000</i>
   <i name="HFALPHA">      0.00000000</i>
   <i name="MCALPHA">      0.00000000</i>
   <i name="ALDAX">      1.00000000</i>
   <i name="AGGAX">      1.00000000</i>
   <i name="ALDAC">      1.00000000</i>
   <i name="AGGAC">      1.00000000</i>
   <i type="int" name="NKREDX">     1</i>
   <i type="int" name="NKREDY">     1</i>
   <i type="int" name="NKREDZ">     1</i>
   <i type="logical" name="SHIFTRED"> F  </i>
   <i type="logical" name="ODDONLY"> F  </i>
   <i type="logical" name="EVENONLY"> F  </i>
   <i type="int" name="LMAXFOCK">     0</i>
   <i type="int" name="NMAXFOCKAE">     0</i>
   <i type="logical" name="LFOCKAEDFT"> F  </i>
   <i name="HFSCREEN">      0.00000000</i>
   <i name="HFSCREENC">      0.00000000</i>
   <i type="int" name="NBANDSGWLOW">     0</i>
  </separator>
  <separator name="vdW DFT" >
   <i type="logical" name="LUSE_VDW"> F  </i>
   <i name="Zab_VDW">     -0.84910000</i>
   <i name="PARAM1">      0.12340000</i>
   <i name="PARAM2">      1.00000000</i>
   <i name="PARAM3">      0.00000000</i>
  </separator>
  <separator name="model GW" >
   <i type="int" name="MODEL_GW">     0</i>
   <i name="MODEL_EPS0">     38.40324581</i>
   <i name="MODEL_ALPHA">      1.00000000</i>
  </separator>
  <separator name="linear response parameters" >
   <i type="logical" name="LEPSILON"> F  </i>
   <i type="logical" name="LRPA"> F  </i>
   <i type="logical" name="LNABLA"> F  </i>
   <i type="logical" name="LVEL"> F  </i>
   <i type="int" name="KINTER">     0</i>
   <i name="CSHIFT">      0.10000000</i>
   <i name="OMEGAMAX">     -1.00000000</i>
   <i name="DEG_THRESHOLD">      0.00200000</i>
   <i name="RTIME">     -0.10000000</i>
   <i name="WPLASMAI">      0.00000000</i>
   <v name="DFIELD">      0.00000000      0.00000000      0.00000000</v>
   <v name="WPLASMA">      0.00000000      0.00000000      0.00000000      0.00000000      0.00000000      0.00000000      0.00000000      0.00000000      0.00000000</v>
  </separator>
  <separator name="orbital magnetization" >
   <i type="logical" name="NUCIND"> F  </i>
   <v name="MAGPOS">      0.00000000      0.00000000      0.00000000</v>
   <i type="logical" name="LNICSALL"> T  </i>
   <i type="logical" name="ORBITALMAG"> F  </i>
   <i type="logical" name="LMAGBLOCH"> F  </i>
   <i type="logical" name="LCHIMAG"> F  </i>
   <i type="logical" name="LGAUGE"> T  </i>
   <i type="int" name="MAGATOM">     0</i>
   <v name="MAGDIPOL">      0.00000000      0.00000000      0.00000000</v>
   <v name="AVECCONST">      0.00000000      0.00000000      0.00000000</v>
  </separator>
  <separator name="response functions" >
   <i type="logical" name="LADDER"> F  </i>
   <i type="logical" name="LRPAFORCE"> F  </i>
   <i type="logical" name="LFXC"> F  </i>
   <i type="logical" name="LHARTREE"> T  </i>
   <i type="int" name="IBSE">     0</i>
   <v type="int" name="KPOINT">    -1     0     0     0</v>
   <i type="logical" name="LTCTE"> F  </i>
   <i type="logical" name="LTETE"> F  </i>
   <i type="logical" name="LTRIPLET"> F  </i>
   <i type="logical" name="LFXCEPS"> F  </i>
   <i type="logical" name="LFXHEG"> F  </i>
   <i type="int" name="NATURALO">     2</i>
   <i type="logical" name="L2ORDER"> F  </i>
   <i type="logical" name="LMP2LT"> F  </i>
   <i type="logical" name="LUSEW"> F  </i>
   <i name="ENCUTGW">     -2.00000000</i>
   <i name="ENCUTGWSOFT">     -2.00000000</i>
   <i name="ENCUTLF">     -1.00000000</i>
   <i type="int" name="LMAXMP2">    -1</i>
   <i name="SCISSOR">      0.00000000</i>
   <i type="int" name="NOMEGA">     0</i>
   <i type="int" name="NOMEGAR">     0</i>
   <i type="int" name="NBANDSGW">    -1</i>
   <i type="int" name="NBANDSO">    -1</i>
   <i type="int" name="NBANDSV">    -1</i>
   <i type="int" name="NELM">   100</i>
   <i type="int" name="NELMHF">     1</i>
   <i type="int" name="DIM">     3</i>
   <i type="int" name="ANTIRES">     0</i>
   <i name="OMEGAMAX">    -30.00000000</i>
   <i name="OMEGAMIN">    -30.00000000</i>
   <i name="OMEGATL">   -200.00000000</i>
   <i type="int" name="OMEGAGRID">   140</i>
   <i name="CSHIFT">     -0.10000000</i>
   <i type="logical" name="SELFENERGY"> F  </i>
   <i type="logical" name="LSPECTRAL"> F  </i>
   <i type="logical" name="LSPECTRALGW"> F  </i>
   <i type="logical" name="LSINGLES"> F  </i>
   <i type="logical" name="LFERMIGW"> F  </i>
   <i type="logical" name="ODDONLYGW"> F  </i>
   <i type="logical" name="EVENONLYGW"> F  </i>
   <i type="int" name="NKREDLFX">     1</i>
   <i type="int" name="NKREDLFY">     1</i>
   <i type="int" name="NKREDLFZ">     1</i>
   <i type="int" name="MAXMEM">  2800</i>
   <i type="int" name="TELESCOPE">     0</i>
   <i type="int" name="TAUPAR">     1</i>
   <i type="int" name="OMEGAPAR">    -1</i>
   <i name="LAMBDA">      1.00000000</i>
  </separator>
  <separator name="External order field" >
   <i name="OFIELD_KAPPA">      0.00000000</i>
   <v name="OFIELD_K">      0.00000000      0.00000000      0.00000000</v>
   <i name="OFIELD_Q6_NEAR">      0.00000000</i>
   <i name="OFIELD_Q6_FAR">      0.00000000</i>
   <i name="OFIELD_A">      0.00000000</i>
  </separator>
 </parameters>
 <atominfo>
  <atoms>       1 </atoms>
  <types>       1 </types>
  <array name="atoms" >
   <dimension dim="1">ion</dimension>
   <field type="string">element</field>
   <field type="int">atomtype</field>
   <set>
    <rc><c>Og</c><c>   1</c></rc>
   </set>
  </array>
  <array name="atomtypes" >
   <dimension dim="1">type</dimension>
   <field type="int">atomspertype</field>
   <field type="string">element</field>
   <field>mass</field>
   <field>valence</field>
   <field type="string">pseudopotential</field>
   <set>
    <rc><c>   1</c><c>Og</c><c>      0.01000000</c><c>     18.00000000</c><c>  PAW Og, JanMewes Oct 18               </c></rc>
   </set>
  </array>
 </atominfo>
 <structure name="initialpos" >
  <crystal>
   <varray name="basis" >
    <v>       4.48997469       0.00000000       0.00000000 </v>
    <v>       2.24498735       3.88843215      -0.00000000 </v>
    <v>       2.24498735       1.29614405       3.66604899 </v>
   </varray>
   <i name="volume">     64.00540968 </i>
   <varray name="rec_basis" >
    <v>       0.22271840      -0.12858653      -0.09092441 </v>
    <v>       0.00000000       0.25717306      -0.09092441 </v>
    <v>      -0.00000000       0.00000000       0.27277322 </v>
   </varray>
  </crystal>
  <varray name="positions" >
   <v>       0.00000000       0.00000000       0.00000000 </v>
  </varray>
  <varray name="velocities" >
   <v>       0.00000000       0.00000000       0.00000000 </v>
  </varray>
 </structure>
 <calculation>
  <scstep>
   <time name="dav">    0.13    0.13</time>
   <time name="total">    0.26    0.27</time>
   <energy>
    <i name="alphaZ">     59.60834591 </i>
    <i name="ewald">  -1684.37377873 </i>
    <i name="hartreedc">   -697.96555248 </i>
    <i name="XCdc">    -67.22056282 </i>
    <i name="pawpsdc">   2266.27872487 </i>
    <i name="pawaedc">  -2184.08858500 </i>
    <i name="eentropy">      0.00018289 </i>
    <i name="bandstr">    -37.46715075 </i>
    <i name="atom">   2642.01744135 </i>
    <i name="e_fr_energy">    296.78906524 </i>
    <i name="e_wo_entrp">    296.78888234 </i>
    <i name="e_0_energy">    296.78900427 </i>
   </energy>
  </scstep>
  <scstep>
   <time name="dav">    0.15    0.15</time>
   <time name="total">    0.15    0.15</time>
   <energy>
    <i name="e_fr_energy">     10.04128643 </i>
    <i name="e_wo_entrp">     10.04090422 </i>
    <i name="e_0_energy">     10.04115903 </i>
   </energy>
  </scstep>
  <scstep>
   <time name="dav">    0.15    0.15</time>
   <time name="total">    0.15    0.15</time>
   <energy>
    <i name="e_fr_energy">      0.07523130 </i>
    <i name="e_wo_entrp">      0.07457627 </i>
    <i name="e_0_energy">      0.07501296 </i>
   </energy>
  </scstep>
  <scstep>
   <time name="dav">    0.17    0.17</time>
   <time name="total">    0.17    0.17</time>
   <energy>
    <i name="e_fr_energy">     -0.10701902 </i>
    <i name="e_wo_entrp">     -0.10760536 </i>
    <i name="e_0_energy">     -0.10721447 </i>
   </energy>
  </scstep>
  <scstep>
   <time name="dav">    0.15    0.16</time>
   <time name="total">    0.25    0.25</time>
   <energy>
    <i name="e_fr_energy">     -0.11416986 </i>
    <i name="e_wo_entrp">     -0.11475607 </i>
    <i name="e_0_energy">     -0.11436527 </i>
   </energy>
  </scstep>
  <scstep>
   <time name="diag">    0.03    0.03</time>
   <time name="diis">    0.14    0.14</time>
   <time name="orth">    0.00    0.00</time>
   <time name="total">    0.39    0.39</time>
   <energy>
    <i name="e_fr_energy">     -0.11455385 </i>
    <i name="e_wo_entrp">     -0.11514147 </i>
    <i name="e_0_energy">     -0.11474972 </i>
   </energy>
  </scstep>
  <scstep>
   <time name="diag">    0.03    0.03</time>
   <time name="diis">    0.15    0.15</time>
   <time name="orth">    0.00    0.00</time>
   <time name="total">    0.40    0.40</time>
   <energy>
    <i name="e_fr_energy">     -0.11480550 </i>
    <i name="e_wo_entrp">     -0.11539478 </i>
    <i name="e_0_energy">     -0.11500193 </i>
   </energy>
  </scstep>
  <scstep>
   <time name="diag">    0.03    0.03</time>
   <time name="diis">    0.14    0.14</time>
   <time name="orth">    0.00    0.00</time>
   <time name="total">    0.39    0.39</time>
   <energy>
    <i name="e_fr_energy">     -0.11485749 </i>
    <i name="e_wo_entrp">     -0.11544627 </i>
    <i name="e_0_energy">     -0.11505375 </i>
   </energy>
  </scstep>
  <scstep>
   <time name="diag">    0.03    0.03</time>
   <time name="diis">    0.16    0.16</time>
   <time name="orth">    0.00    0.00</time>
   <time name="total">    0.41    0.41</time>
   <energy>
    <i name="e_fr_energy">     -0.11486272 </i>
    <i name="e_wo_entrp">     -0.11545146 </i>
    <i name="e_0_energy">     -0.11505897 </i>
   </energy>
  </scstep>
  <scstep>
   <time name="diag">    0.03    0.03</time>
   <time name="diis">    0.15    0.15</time>
   <time name="orth">    0.00    0.00</time>
   <time name="total">    0.41    0.41</time>
   <energy>
    <i name="e_fr_energy">     -0.11486463 </i>
    <i name="e_wo_entrp">     -0.11545340 </i>
    <i name="e_0_energy">     -0.11506089 </i>
   </energy>
  </scstep>
  <scstep>
   <time name="diag">    0.03    0.03</time>
   <time name="diis">    0.14    0.14</time>
   <time name="orth">    0.00    0.00</time>
   <time name="total">    0.38    0.39</time>
   <energy>
    <i name="e_fr_energy">     -0.11486442 </i>
    <i name="e_wo_entrp">     -0.11545323 </i>
    <i name="e_0_energy">     -0.11506069 </i>
   </energy>
  </scstep>
  <scstep>
   <time name="diag">    0.03    0.03</time>
   <time name="diis">    0.11    0.11</time>
   <time name="orth">    0.00    0.00</time>
   <time name="total">    0.27    0.27</time>
   <energy>
    <i name="alphaZ">     59.60834591 </i>
    <i name="ewald">  -1684.37377873 </i>
    <i name="hartreedc">   -696.55056484 </i>
    <i name="XCdc">    -67.29685019 </i>
    <i name="pawpsdc">   2254.07848863 </i>
    <i name="pawaedc">  -2171.83215341 </i>
    <i name="eentropy">      0.00058879 </i>
    <i name="bandstr">   -335.76638201 </i>
    <i name="atom">   2642.01744135 </i>
    <i name="e_fr_energy">     -0.11486451 </i>
    <i name="e_wo_entrp">     -0.11545330 </i>
    <i name="e_0_energy">     -0.11506078 </i>
   </energy>
  </scstep>
  <structure>
   <crystal>
    <varray name="basis" >
     <v>       4.48997469       0.00000000       0.00000000 </v>
     <v>       2.24498735       3.88843215      -0.00000000 </v>
     <v>       2.24498735       1.29614405       3.66604899 </v>
    </varray>
    <i name="volume">     64.00540968 </i>
    <varray name="rec_basis" >
     <v>       0.22271840      -0.12858653      -0.09092441 </v>
     <v>       0.00000000       0.25717306      -0.09092441 </v>
     <v>      -0.00000000       0.00000000       0.27277322 </v>
    </varray>
   </crystal>
   <varray name="positions" >
    <v>       0.00000000       0.00000000       0.00000000 </v>
   </varray>
  </structure>
  <varray name="forces" >
   <v>       0.00000000       0.00000000       0.00000000 </v>
  </varray>
  <varray name="stress" >
   <v>      -0.08634970       0.00000000       0.00000000 </v>
   <v>       0.00000000      -0.08634970      -0.00000000 </v>
   <v>       0.00000000       0.00000000      -0.08634970 </v>
  </varray>
  <energy>
   <i name="e_fr_energy">     -0.11486451 </i>
   <i name="e_wo_entrp">     -0.11506078 </i>
   <i name="e_0_energy">      0.00058879 </i>
  </energy>
  <time name="totalsc">    5.88    5.89</time>
  <eigenvalues>
   <array>
    <dimension dim="1">band</dimension>
    <dimension dim="2">kpoint</dimension>
    <dimension dim="3">spin</dimension>
    <field>eigene</field>
    <field>occ</field>
    <set>
     <set comment="spin 1">
      <set comment="kpoint 1">
       <r>  -28.9466    1.0000 </r>
       <r>  -28.9466    1.0000 </r>
       <r>  -28.9466    1.0000 </r>
       <r>  -28.9444    1.0000 </r>
       <r>  -28.9444    1.0000 </r>
       <r>  -21.9473    1.0000 </r>
       <r>    0.7581    0.7955 </r>
       <r>    0.7581    0.7955 </r>
       <r>    0.7581    0.7955 </r>
       <r>    2.9194   -0.0000 </r>
       <r>    9.8777    0.0000 </r>
       <r>    9.8777    0.0000 </r>
       <r>    9.8781    0.0000 </r>
      </set>
      <set comment="kpoint 2">
       <r>  -28.9464    1.0000 </r>
       <r>  -28.9463    1.0000 </r>
       <r>  -28.9463    1.0000 </r>
       <r>  -28.9443    1.0000 </r>
       <r>  -28.9443    1.0000 </r>
       <r>  -21.9399    1.0000 </r>
       <r>    0.1691    1.0000 </r>
       <r>    0.7168    0.9876 </r>
       <r>    0.7168    0.9876 </r>
       <r>    3.6049    0.0000 </r>
       <r>    9.1348    0.0000 </r>
       <r>    9.9988    0.0000 </r>
       <r>    9.9988    0.0000 </r>
      </set>
      <set comment="kpoint 3">
       <r>  -28.9459    1.0000 </r>
       <r>  -28.9459    1.0000 </r>
       <r>  -28.9459    1.0000 </r>
       <r>  -28.9436    1.0000 </r>
       <r>  -28.9436    1.0000 </r>
       <r>  -21.9210    1.0000 </r>
       <r>   -0.7272    1.0000 </r>
       <r>    0.6156    1.0143 </r>
       <r>    0.6156    1.0143 </r>
       <r>    4.6392    0.0000 </r>
       <r>    8.8876    0.0000 </r>
       <r>   10.0275    0.0000 </r>
       <r>   10.0275    0.0000 </r>
      </set>
      <set comment="kpoint 4">
       <r>  -28.9460    1.0000 </r>
       <r>  -28.9460    1.0000 </r>
       <r>  -28.9454    1.0000 </r>
       <r>  -28.9424    1.0000 </r>
       <r>  -28.9424    1.0000 </r>
       <r>  -21.8993    1.0000 </r>
       <r>   -1.4182    1.0000 </r>
       <r>    0.5060    1.0002 </r>
       <r>    0.5060    1.0002 </r>
       <r>    5.1985    0.0000 </r>
       <r>    9.5564    0.0000 </r>
       <r>    9.7069    0.0000 </r>
       <r>    9.7069    0.0000 </r>
      </set>
      <set comment="kpoint 5">
       <r>  -28.9461    1.0000 </r>
       <r>  -28.9461    1.0000 </r>
       <r>  -28.9451    1.0000 </r>
       <r>  -28.9415    1.0000 </r>
       <r>  -28.9415    1.0000 </r>
       <r>  -21.8851    1.0000 </r>
       <r>   -1.7839    1.0000 </r>
       <r>    0.4372    1.0000 </r>
       <r>    0.4372    1.0000 </r>
       <r>    5.3224    0.0000 </r>
       <r>    9.4769    0.0000 </r>
       <r>    9.4769    0.0000 </r>
       <r>    9.8286    0.0000 </r>
      </set>
      <set comment="kpoint 6">
       <r>  -28.9468    1.0000 </r>
       <r>  -28.9459    1.0000 </r>
       <r>  -28.9459    1.0000 </r>
       <r>  -28.9446    1.0000 </r>
       <r>  -28.9441    1.0000 </r>
       <r>  -21.9375    1.0000 </r>
       <r>    0.1358    1.0000 </r>
       <r>    0.6272    1.0192 </r>
       <r>    0.6272    1.0192 </r>
       <r>    3.8380    0.0000 </r>
       <r>    8.8436    0.0000 </r>
       <r>   10.1685    0.0000 </r>
       <r>   10.1773    0.0000 </r>
      </set>
      <set comment="kpoint 7">
       <r>  -28.9467    1.0000 </r>
       <r>  -28.9453    1.0000 </r>
       <r>  -28.9453    1.0000 </r>
       <r>  -28.9444    1.0000 </r>
       <r>  -28.9434    1.0000 </r>
       <r>  -21.9224    1.0000 </r>
       <r>   -0.5355    1.0000 </r>
       <r>    0.4935    1.0001 </r>
       <r>    0.5300    1.0006 </r>
       <r>    4.7599    0.0000 </r>
       <r>    8.4661    0.0000 </r>
       <r>    9.6155    0.0000 </r>
       <r>   10.4284    0.0000 </r>
      </set>
      <set comment="kpoint 8">
       <r>  -28.9463    1.0000 </r>
       <r>  -28.9453    1.0000 </r>
       <r>  -28.9453    1.0000 </r>
       <r>  -28.9433    1.0000 </r>
       <r>  -28.9423    1.0000 </r>
       <r>  -21.9016    1.0000 </r>
       <r>   -1.2096    1.0000 </r>
       <r>    0.3801    1.0000 </r>
       <r>    0.3810    1.0000 </r>
       <r>    5.5146    0.0000 </r>
       <r>    8.7996    0.0000 </r>
       <r>    8.9703    0.0000 </r>
       <r>   10.1993    0.0000 </r>
      </set>
      <set comment="kpoint 9">
       <r>  -28.9462    1.0000 </r>
       <r>  -28.9455    1.0000 </r>
       <r>  -28.9449    1.0000 </r>
       <r>  -28.9422    1.0000 </r>
       <r>  -28.9414    1.0000 </r>
       <r>  -21.8849    1.0000 </r>
       <r>   -1.6368    1.0000 </r>
       <r>    0.2174    1.0000 </r>
       <r>    0.3350    1.0000 </r>
       <r>    5.7688    0.0000 </r>
       <r>    8.5970    0.0000 </r>
       <r>    9.8663    0.0000 </r>
       <r>    9.9894    0.0000 </r>
      </set>
      <set comment="kpoint 10">
       <r>  -28.9461    1.0000 </r>
       <r>  -28.9456    1.0000 </r>
       <r>  -28.9448    1.0000 </r>
       <r>  -28.9416    1.0000 </r>
       <r>  -28.9415    1.0000 </r>
       <r>  -21.8801    1.0000 </r>
       <r>   -1.7440    1.0000 </r>
       <r>    0.1155    1.0000 </r>
       <r>    0.3756    1.0000 </r>
       <r>    5.8082    0.0000 </r>
       <r>    8.5399    0.0000 </r>
       <r>    9.6890    0.0000 </r>
       <r>   10.7373    0.0000 </r>
      </set>
      <set comment="kpoint 11">
       <r>  -28.9459    1.0000 </r>
       <r>  -28.9455    1.0000 </r>
       <r>  -28.9451    1.0000 </r>
       <r>  -28.9425    1.0000 </r>
       <r>  -28.9418    1.0000 </r>
       <r>  -21.8896    1.0000 </r>
       <r>   -1.5201    1.0000 </r>
       <r>    0.1220    1.0000 </r>
       <r>    0.4859    1.0001 </r>
       <r>    5.7397    0.0000 </r>
       <r>    8.7877    0.0000 </r>
       <r>    9.7196    0.0000 </r>
       <r>    9.7489    0.0000 </r>
      </set>
      <set comment="kpoint 12">
       <r>  -28.9458    1.0000 </r>
       <r>  -28.9456    1.0000 </r>
       <r>  -28.9454    1.0000 </r>
       <r>  -28.9439    1.0000 </r>
       <r>  -28.9426    1.0000 </r>
       <r>  -21.9088    1.0000 </r>
       <r>   -1.0073    1.0000 </r>
       <r>    0.2491    1.0000 </r>
       <r>    0.6199    1.0160 </r>
       <r>    5.3062    0.0000 </r>
       <r>    8.7714    0.0000 </r>
       <r>    9.3101    0.0000 </r>
       <r>   10.0528    0.0000 </r>
      </set>
      <set comment="kpoint 13">
       <r>  -28.9463    1.0000 </r>
       <r>  -28.9459    1.0000 </r>
       <r>  -28.9457    1.0000 </r>
       <r>  -28.9444    1.0000 </r>
       <r>  -28.9437    1.0000 </r>
       <r>  -21.9287    1.0000 </r>
       <r>   -0.3390    1.0000 </r>
       <r>    0.4812    1.0000 </r>
       <r>    0.7137    0.9955 </r>
       <r>    4.3743    0.0000 </r>
       <r>    8.7405    0.0000 </r>
       <r>    9.9333    0.0000 </r>
       <r>   10.1531    0.0000 </r>
      </set>
      <set comment="kpoint 14">
       <r>  -28.9473    1.0000 </r>
       <r>  -28.9450    1.0000 </r>
       <r>  -28.9441    1.0000 </r>
       <r>  -28.9441    1.0000 </r>
       <r>  -28.9433    1.0000 </r>
       <r>  -21.9123    1.0000 </r>
       <r>   -0.7101    1.0000 </r>
       <r>    0.3216    1.0000 </r>
       <r>    0.3216    1.0000 </r>
       <r>    5.3621    0.0000 </r>
       <r>    7.9110    0.0000 </r>
       <r>    9.1431    0.0000 </r>
       <r>   10.9248    0.0000 </r>
      </set>
      <set comment="kpoint 15">
       <r>  -28.9472    1.0000 </r>
       <r>  -28.9452    1.0000 </r>
       <r>  -28.9438    1.0000 </r>
       <r>  -28.9431    1.0000 </r>
       <r>  -28.9422    1.0000 </r>
       <r>  -21.8954    1.0000 </r>
       <r>   -1.1240    1.0000 </r>
       <r>    0.1207    1.0000 </r>
       <r>    0.1822    1.0000 </r>
       <r>    5.9902    0.0000 </r>
       <r>    7.7979    0.0000 </r>
       <r>    8.7759    0.0000 </r>
       <r>   11.0812    0.0000 </r>
      </set>
      <set comment="kpoint 16">
       <r>  -28.9467    1.0000 </r>
       <r>  -28.9450    1.0000 </r>
       <r>  -28.9440    1.0000 </r>
       <r>  -28.9425    1.0000 </r>
       <r>  -28.9413    1.0000 </r>
       <r>  -21.8796    1.0000 </r>
       <r>   -1.4350    1.0000 </r>
       <r>   -0.1764    1.0000 </r>
       <r>    0.1316    1.0000 </r>
       <r>    6.3537    0.0000 </r>
       <r>    8.2619    0.0000 </r>
       <r>    8.7054    0.0000 </r>
       <r>   10.7663    0.0000 </r>
      </set>
      <set comment="kpoint 17">
       <r>  -28.9464    1.0000 </r>
       <r>  -28.9442    1.0000 </r>
       <r>  -28.9441    1.0000 </r>
       <r>  -28.9424    1.0000 </r>
       <r>  -28.9414    1.0000 </r>
       <r>  -21.8723    1.0000 </r>
       <r>   -1.5275    1.0000 </r>
       <r>   -0.4455    1.0000 </r>
       <r>    0.1885    1.0000 </r>
       <r>    6.5470    0.0000 </r>
       <r>    8.1886    0.0000 </r>
       <r>    9.9128    0.0000 </r>
       <r>   10.4441    0.0000 </r>
      </set>
      <set comment="kpoint 18">
       <r>  -28.9461    1.0000 </r>
       <r>  -28.9443    1.0000 </r>
       <r>  -28.9441    1.0000 </r>
       <r>  -28.9425    1.0000 </r>
       <r>  -28.9422    1.0000 </r>
       <r>  -21.8770    1.0000 </r>
       <r>   -1.4256    1.0000 </r>
       <r>   -0.5146    1.0000 </r>
       <r>    0.3321    1.0000 </r>
       <r>    6.6732    0.0000 </r>
       <r>    8.1963    0.0000 </r>
       <r>    9.6978    0.0000 </r>
       <r>   10.2785    0.0000 </r>
      </set>
      <set comment="kpoint 19">
       <r>  -28.9458    1.0000 </r>
       <r>  -28.9450    1.0000 </r>
       <r>  -28.9442    1.0000 </r>
       <r>  -28.9440    1.0000 </r>
       <r>  -28.9420    1.0000 </r>
       <r>  -21.8914    1.0000 </r>
       <r>   -1.2397    1.0000 </r>
       <r>   -0.2517    1.0000 </r>
       <r>    0.5036    1.0001 </r>
       <r>    6.2800    0.0000 </r>
       <r>    8.5403    0.0000 </r>
       <r>    8.8142    0.0000 </r>
       <r>   10.2441    0.0000 </r>
      </set>
      <set comment="kpoint 20">
       <r>  -28.9479    1.0000 </r>
       <r>  -28.9456    1.0000 </r>
       <r>  -28.9424    1.0000 </r>
       <r>  -28.9421    1.0000 </r>
       <r>  -28.9421    1.0000 </r>
       <r>  -21.8835    1.0000 </r>
       <r>   -1.2993    1.0000 </r>
       <r>    0.0099    1.0000 </r>
       <r>    0.0099    1.0000 </r>
       <r>    5.9597    0.0000 </r>
       <r>    7.2838    0.0000 </r>
       <r>    9.4715    0.0000 </r>
       <r>   11.9173    0.0000 </r>
      </set>
      <set comment="kpoint 21">
       <r>  -28.9477    1.0000 </r>
       <r>  -28.9456    1.0000 </r>
       <r>  -28.9425    1.0000 </r>
       <r>  -28.9415    1.0000 </r>
       <r>  -28.9411    1.0000 </r>
       <r>  -21.8716    1.0000 </r>
       <r>   -1.4574    1.0000 </r>
       <r>   -0.2406    1.0000 </r>
       <r>   -0.0669    1.0000 </r>
       <r>    6.0316    0.0000 </r>
       <r>    7.3615    0.0000 </r>
       <r>    9.8687    0.0000 </r>
       <r>   11.9505    0.0000 </r>
      </set>
      <set comment="kpoint 22">
       <r>  -28.9470    1.0000 </r>
       <r>  -28.9450    1.0000 </r>
       <r>  -28.9427    1.0000 </r>
       <r>  -28.9418    1.0000 </r>
       <r>  -28.9412    1.0000 </r>
       <r>  -21.8652    1.0000 </r>
       <r>   -1.3975    1.0000 </r>
       <r>   -0.6819    1.0000 </r>
       <r>   -0.0211    1.0000 </r>
       <r>    6.2997    0.0000 </r>
       <r>    8.1152    0.0000 </r>
       <r>    9.8556    0.0000 </r>
       <r>   11.5558    0.0000 </r>
      </set>
      <set comment="kpoint 23">
       <r>  -28.9465    1.0000 </r>
       <r>  -28.9435    1.0000 </r>
       <r>  -28.9431    1.0000 </r>
       <r>  -28.9428    1.0000 </r>
       <r>  -28.9420    1.0000 </r>
       <r>  -21.8673    1.0000 </r>
       <r>   -1.1349    1.0000 </r>
       <r>   -1.0614    1.0000 </r>
       <r>    0.1317    1.0000 </r>
       <r>    6.6576    0.0000 </r>
       <r>    8.7116    0.0000 </r>
       <r>   10.0738    0.0000 </r>
       <r>   10.3703    0.0000 </r>
      </set>
      <set comment="kpoint 24">
       <r>  -28.9483    1.0000 </r>
       <r>  -28.9460    1.0000 </r>
       <r>  -28.9418    1.0000 </r>
       <r>  -28.9408    1.0000 </r>
       <r>  -28.9408    1.0000 </r>
       <r>  -21.8647    1.0000 </r>
       <r>   -1.5886    1.0000 </r>
       <r>   -0.1772    1.0000 </r>
       <r>   -0.1772    1.0000 </r>
       <r>    5.6767    0.0000 </r>
       <r>    6.9694    0.0000 </r>
       <r>   11.4279    0.0000 </r>
       <r>   12.8080    0.0000 </r>
      </set>
      <set comment="kpoint 25">
       <r>  -28.9479    1.0000 </r>
       <r>  -28.9458    1.0000 </r>
       <r>  -28.9419    1.0000 </r>
       <r>  -28.9409    1.0000 </r>
       <r>  -28.9407    1.0000 </r>
       <r>  -21.8622    1.0000 </r>
       <r>   -1.5582    1.0000 </r>
       <r>   -0.3835    1.0000 </r>
       <r>   -0.1600    1.0000 </r>
       <r>    5.8433    0.0000 </r>
       <r>    7.2130    0.0000 </r>
       <r>   11.7623    0.0000 </r>
       <r>   11.7776    0.0000 </r>
      </set>
      <set comment="kpoint 26">
       <r>  -28.9466    1.0000 </r>
       <r>  -28.9453    1.0000 </r>
       <r>  -28.9444    1.0000 </r>
       <r>  -28.9442    1.0000 </r>
       <r>  -28.9426    1.0000 </r>
       <r>  -21.9064    1.0000 </r>
       <r>   -0.9424    1.0000 </r>
       <r>    0.1447    1.0000 </r>
       <r>    0.4754    1.0000 </r>
       <r>    5.6132    0.0000 </r>
       <r>    8.2414    0.0000 </r>
       <r>    8.9170    0.0000 </r>
       <r>   10.8072    0.0000 </r>
      </set>
      <set comment="kpoint 27">
       <r>  -28.9460    1.0000 </r>
       <r>  -28.9454    1.0000 </r>
       <r>  -28.9444    1.0000 </r>
       <r>  -28.9430    1.0000 </r>
       <r>  -28.9418    1.0000 </r>
       <r>  -21.8881    1.0000 </r>
       <r>   -1.3331    1.0000 </r>
       <r>   -0.1367    1.0000 </r>
       <r>    0.3477    1.0000 </r>
       <r>    6.3127    0.0000 </r>
       <r>    8.3366    0.0000 </r>
       <r>    8.6852    0.0000 </r>
       <r>   10.4961    0.0000 </r>
      </set>
      <set comment="kpoint 28">
       <r>  -28.9460    1.0000 </r>
       <r>  -28.9452    1.0000 </r>
       <r>  -28.9441    1.0000 </r>
       <r>  -28.9424    1.0000 </r>
       <r>  -28.9415    1.0000 </r>
       <r>  -21.8761    1.0000 </r>
       <r>   -1.5637    1.0000 </r>
       <r>   -0.2718    1.0000 </r>
       <r>    0.2362    1.0000 </r>
       <r>    6.5316    0.0000 </r>
       <r>    8.0145    0.0000 </r>
       <r>    9.9134    0.0000 </r>
       <r>   10.3143    0.0000 </r>
      </set>
      <set comment="kpoint 29">
       <r>  -28.9471    1.0000 </r>
       <r>  -28.9454    1.0000 </r>
       <r>  -28.9435    1.0000 </r>
       <r>  -28.9421    1.0000 </r>
       <r>  -28.9417    1.0000 </r>
       <r>  -21.8810    1.0000 </r>
       <r>   -1.3256    1.0000 </r>
       <r>   -0.1930    1.0000 </r>
       <r>    0.0738    1.0000 </r>
       <r>    6.3879    0.0000 </r>
       <r>    7.7486    0.0000 </r>
       <r>    8.7434    0.0000 </r>
       <r>   11.6261    0.0000 </r>
      </set>
      <set comment="kpoint 30">
       <r>  -28.9464    1.0000 </r>
       <r>  -28.9451    1.0000 </r>
       <r>  -28.9435    1.0000 </r>
       <r>  -28.9420    1.0000 </r>
       <r>  -28.9412    1.0000 </r>
       <r>  -21.8699    1.0000 </r>
       <r>   -1.3872    1.0000 </r>
       <r>   -0.5328    1.0000 </r>
       <r>   -0.0285    1.0000 </r>
       <r>    6.7609    0.0000 </r>
       <r>    8.2308    0.0000 </r>
       <r>    8.7145    0.0000 </r>
       <r>   11.3634    0.0000 </r>
      </set>
      <set comment="kpoint 31">
       <r>  -28.9460    1.0000 </r>
       <r>  -28.9443    1.0000 </r>
       <r>  -28.9432    1.0000 </r>
       <r>  -28.9430    1.0000 </r>
       <r>  -28.9413    1.0000 </r>
       <r>  -21.8673    1.0000 </r>
       <r>   -1.3051    1.0000 </r>
       <r>   -0.7982    1.0000 </r>
       <r>    0.0169    1.0000 </r>
       <r>    7.0811    0.0000 </r>
       <r>    8.0946    0.0000 </r>
       <r>    9.7472    0.0000 </r>
       <r>   10.2979    0.0000 </r>
      </set>
      <set comment="kpoint 32">
       <r>  -28.9457    1.0000 </r>
       <r>  -28.9449    1.0000 </r>
       <r>  -28.9439    1.0000 </r>
       <r>  -28.9422    1.0000 </r>
       <r>  -28.9422    1.0000 </r>
       <r>  -21.8745    1.0000 </r>
       <r>   -1.3149    1.0000 </r>
       <r>   -0.6377    1.0000 </r>
       <r>    0.1809    1.0000 </r>
       <r>    7.2081    0.0000 </r>
       <r>    7.8603    0.0000 </r>
       <r>    8.9027    0.0000 </r>
       <r>   10.9506    0.0000 </r>
      </set>
      <set comment="kpoint 33">
       <r>  -28.9474    1.0000 </r>
       <r>  -28.9456    1.0000 </r>
       <r>  -28.9423    1.0000 </r>
       <r>  -28.9414    1.0000 </r>
       <r>  -28.9408    1.0000 </r>
       <r>  -21.8644    1.0000 </r>
       <r>   -1.4781    1.0000 </r>
       <r>   -0.3935    1.0000 </r>
       <r>   -0.2201    1.0000 </r>
       <r>    6.1701    0.0000 </r>
       <r>    7.4791    0.0000 </r>
       <r>   10.1877    0.0000 </r>
       <r>   11.8711    0.0000 </r>
      </set>
      <set comment="kpoint 34">
       <r>  -28.9465    1.0000 </r>
       <r>  -28.9450    1.0000 </r>
       <r>  -28.9425    1.0000 </r>
       <r>  -28.9425    1.0000 </r>
       <r>  -28.9408    1.0000 </r>
       <r>  -21.8627    1.0000 </r>
       <r>   -1.3052    1.0000 </r>
       <r>   -0.7733    1.0000 </r>
       <r>   -0.1830    1.0000 </r>
       <r>    6.6262    0.0000 </r>
       <r>    8.2183    0.0000 </r>
       <r>    9.7581    0.0000 </r>
       <r>   10.4844    0.0000 </r>
      </set>
      <set comment="kpoint 35">
       <r>  -28.9452    1.0000 </r>
       <r>  -28.9451    1.0000 </r>
       <r>  -28.9438    1.0000 </r>
       <r>  -28.9427    1.0000 </r>
       <r>  -28.9408    1.0000 </r>
       <r>  -21.8636    1.0000 </r>
       <r>   -1.1776    1.0000 </r>
       <r>   -0.8628    1.0000 </r>
       <r>   -0.2514    1.0000 </r>
       <r>    7.3975    0.0000 </r>
       <r>    8.3628    0.0000 </r>
       <r>    8.7958    0.0000 </r>
       <r>   10.0921    0.0000 </r>
      </set>
     </set>
    </set>
   </array>
  </eigenvalues>
  <separator name="orbital magnetization" >
   <v name="MAGDIPOLOUT">      0.00000000      0.00000000      0.00000000</v>
  </separator>
  <dos>
   <i name="efermi">      0.79586534 </i>
   <total>
    <array>
     <dimension dim="1">gridpoints</dimension>
     <dimension dim="2">spin</dimension>
     <field>energy</field>
     <field>total</field>
     <field>integrated</field>
     <set>
      <set comment="spin 1">
       <r>   -31.0361     0.0000     0.0000 </r>
       <r>   -30.8830     0.0000     0.0000 </r>
       <r>   -30.7299     0.0000     0.0000 </r>
       <r>   -30.5768     0.0000     0.0000 </r>
       <r>   -30.4237     0.0000     0.0000 </r>
       <r>   -30.2706     0.0000     0.0000 </r>
       <r>   -30.1175     0.0000     0.0000 </r>
       <r>   -29.9643     0.0000     0.0000 </r>
       <r>   -29.8112    -0.0000    -0.0000 </r>
       <r>   -29.6581    -0.0000    -0.0000 </r>
       <r>   -29.5050    -0.0000    -0.0000 </r>
       <r>   -29.3519    -0.0000    -0.0000 </r>
       <r>   -29.1988    -0.0610    -0.0093 </r>
       <r>   -29.0457    -1.6833    -0.2671 </r>
       <r>   -28.8926    59.0590     8.7752 </r>
       <r>   -28.7395     8.4503    10.0690 </r>
       <r>   -28.5864    -0.4507    10.0000 </r>
       <r>   -28.4333    -0.0002    10.0000 </r>
       <r>   -28.2802    -0.0000    10.0000 </r>
       <r>   -28.1271     0.0000    10.0000 </r>
       <r>   -27.9740     0.0000    10.0000 </r>
       <r>   -27.8209     0.0000    10.0000 </r>
       <r>   -27.6678     0.0000    10.0000 </r>
       <r>   -27.5146     0.0000    10.0000 </r>
       <r>   -27.3615     0.0000    10.0000 </r>
       <r>   -27.2084     0.0000    10.0000 </r>
       <r>   -27.0553     0.0000    10.0000 </r>
       <r>   -26.9022     0.0000    10.0000 </r>
       <r>   -26.7491     0.0000    10.0000 </r>
       <r>   -26.5960     0.0000    10.0000 </r>
       <r>   -26.4429     0.0000    10.0000 </r>
       <r>   -26.2898     0.0000    10.0000 </r>
       <r>   -26.1367     0.0000    10.0000 </r>
       <r>   -25.9836     0.0000    10.0000 </r>
       <r>   -25.8305     0.0000    10.0000 </r>
       <r>   -25.6774     0.0000    10.0000 </r>
       <r>   -25.5243     0.0000    10.0000 </r>
       <r>   -25.3712     0.0000    10.0000 </r>
       <r>   -25.2181     0.0000    10.0000 </r>
       <r>   -25.0649     0.0000    10.0000 </r>
       <r>   -24.9118     0.0000    10.0000 </r>
       <r>   -24.7587     0.0000    10.0000 </r>
       <r>   -24.6056     0.0000    10.0000 </r>
       <r>   -24.4525     0.0000    10.0000 </r>
       <r>   -24.2994     0.0000    10.0000 </r>
       <r>   -24.1463     0.0000    10.0000 </r>
       <r>   -23.9932     0.0000    10.0000 </r>
       <r>   -23.8401     0.0000    10.0000 </r>
       <r>   -23.6870     0.0000    10.0000 </r>
       <r>   -23.5339     0.0000    10.0000 </r>
       <r>   -23.3808     0.0000    10.0000 </r>
       <r>   -23.2277     0.0000    10.0000 </r>
       <r>   -23.0746     0.0000    10.0000 </r>
       <r>   -22.9215     0.0000    10.0000 </r>
       <r>   -22.7684    -0.0000    10.0000 </r>
       <r>   -22.6152    -0.0000    10.0000 </r>
       <r>   -22.4621    -0.0000    10.0000 </r>
       <r>   -22.3090    -0.0000    10.0000 </r>
       <r>   -22.1559    -0.0081     9.9988 </r>
       <r>   -22.0028    -0.3527     9.9448 </r>
       <r>   -21.8497    10.1977    11.5061 </r>
       <r>   -21.6966     3.3955    12.0260 </r>
       <r>   -21.5435    -0.1695    12.0000 </r>
       <r>   -21.3904    -0.0002    12.0000 </r>
       <r>   -21.2373    -0.0000    12.0000 </r>
       <r>   -21.0842     0.0000    12.0000 </r>
       <r>   -20.9311     0.0000    12.0000 </r>
       <r>   -20.7780     0.0000    12.0000 </r>
       <r>   -20.6249     0.0000    12.0000 </r>
       <r>   -20.4718     0.0000    12.0000 </r>
       <r>   -20.3187     0.0000    12.0000 </r>
       <r>   -20.1655     0.0000    12.0000 </r>
       <r>   -20.0124     0.0000    12.0000 </r>
       <r>   -19.8593     0.0000    12.0000 </r>
       <r>   -19.7062     0.0000    12.0000 </r>
       <r>   -19.5531     0.0000    12.0000 </r>
       <r>   -19.4000     0.0000    12.0000 </r>
       <r>   -19.2469     0.0000    12.0000 </r>
       <r>   -19.0938     0.0000    12.0000 </r>
       <r>   -18.9407     0.0000    12.0000 </r>
       <r>   -18.7876     0.0000    12.0000 </r>
       <r>   -18.6345     0.0000    12.0000 </r>
       <r>   -18.4814     0.0000    12.0000 </r>
       <r>   -18.3283     0.0000    12.0000 </r>
       <r>   -18.1752     0.0000    12.0000 </r>
       <r>   -18.0221     0.0000    12.0000 </r>
       <r>   -17.8690     0.0000    12.0000 </r>
       <r>   -17.7158     0.0000    12.0000 </r>
       <r>   -17.5627     0.0000    12.0000 </r>
       <r>   -17.4096     0.0000    12.0000 </r>
       <r>   -17.2565     0.0000    12.0000 </r>
       <r>   -17.1034     0.0000    12.0000 </r>
       <r>   -16.9503     0.0000    12.0000 </r>
       <r>   -16.7972     0.0000    12.0000 </r>
       <r>   -16.6441     0.0000    12.0000 </r>
       <r>   -16.4910     0.0000    12.0000 </r>
       <r>   -16.3379     0.0000    12.0000 </r>
       <r>   -16.1848     0.0000    12.0000 </r>
       <r>   -16.0317     0.0000    12.0000 </r>
       <r>   -15.8786     0.0000    12.0000 </r>
       <r>   -15.7255     0.0000    12.0000 </r>
       <r>   -15.5724     0.0000    12.0000 </r>
       <r>   -15.4193     0.0000    12.0000 </r>
       <r>   -15.2661     0.0000    12.0000 </r>
       <r>   -15.1130     0.0000    12.0000 </r>
       <r>   -14.9599     0.0000    12.0000 </r>
       <r>   -14.8068     0.0000    12.0000 </r>
       <r>   -14.6537     0.0000    12.0000 </r>
       <r>   -14.5006     0.0000    12.0000 </r>
       <r>   -14.3475     0.0000    12.0000 </r>
       <r>   -14.1944     0.0000    12.0000 </r>
       <r>   -14.0413     0.0000    12.0000 </r>
       <r>   -13.8882     0.0000    12.0000 </r>
       <r>   -13.7351     0.0000    12.0000 </r>
       <r>   -13.5820     0.0000    12.0000 </r>
       <r>   -13.4289     0.0000    12.0000 </r>
       <r>   -13.2758     0.0000    12.0000 </r>
       <r>   -13.1227     0.0000    12.0000 </r>
       <r>   -12.9695     0.0000    12.0000 </r>
       <r>   -12.8164     0.0000    12.0000 </r>
       <r>   -12.6633     0.0000    12.0000 </r>
       <r>   -12.5102     0.0000    12.0000 </r>
       <r>   -12.3571     0.0000    12.0000 </r>
       <r>   -12.2040     0.0000    12.0000 </r>
       <r>   -12.0509     0.0000    12.0000 </r>
       <r>   -11.8978     0.0000    12.0000 </r>
       <r>   -11.7447     0.0000    12.0000 </r>
       <r>   -11.5916     0.0000    12.0000 </r>
       <r>   -11.4385     0.0000    12.0000 </r>
       <r>   -11.2854     0.0000    12.0000 </r>
       <r>   -11.1323     0.0000    12.0000 </r>
       <r>   -10.9792     0.0000    12.0000 </r>
       <r>   -10.8261     0.0000    12.0000 </r>
       <r>   -10.6730     0.0000    12.0000 </r>
       <r>   -10.5198     0.0000    12.0000 </r>
       <r>   -10.3667     0.0000    12.0000 </r>
       <r>   -10.2136     0.0000    12.0000 </r>
       <r>   -10.0605     0.0000    12.0000 </r>
       <r>    -9.9074     0.0000    12.0000 </r>
       <r>    -9.7543     0.0000    12.0000 </r>
       <r>    -9.6012     0.0000    12.0000 </r>
       <r>    -9.4481     0.0000    12.0000 </r>
       <r>    -9.2950     0.0000    12.0000 </r>
       <r>    -9.1419     0.0000    12.0000 </r>
       <r>    -8.9888     0.0000    12.0000 </r>
       <r>    -8.8357     0.0000    12.0000 </r>
       <r>    -8.6826     0.0000    12.0000 </r>
       <r>    -8.5295     0.0000    12.0000 </r>
       <r>    -8.3764     0.0000    12.0000 </r>
       <r>    -8.2233     0.0000    12.0000 </r>
       <r>    -8.0701     0.0000    12.0000 </r>
       <r>    -7.9170     0.0000    12.0000 </r>
       <r>    -7.7639     0.0000    12.0000 </r>
       <r>    -7.6108     0.0000    12.0000 </r>
       <r>    -7.4577     0.0000    12.0000 </r>
       <r>    -7.3046     0.0000    12.0000 </r>
       <r>    -7.1515     0.0000    12.0000 </r>
       <r>    -6.9984     0.0000    12.0000 </r>
       <r>    -6.8453     0.0000    12.0000 </r>
       <r>    -6.6922     0.0000    12.0000 </r>
       <r>    -6.5391     0.0000    12.0000 </r>
       <r>    -6.3860     0.0000    12.0000 </r>
       <r>    -6.2329     0.0000    12.0000 </r>
       <r>    -6.0798     0.0000    12.0000 </r>
       <r>    -5.9267     0.0000    12.0000 </r>
       <r>    -5.7736     0.0000    12.0000 </r>
       <r>    -5.6204     0.0000    12.0000 </r>
       <r>    -5.4673     0.0000    12.0000 </r>
       <r>    -5.3142     0.0000    12.0000 </r>
       <r>    -5.1611     0.0000    12.0000 </r>
       <r>    -5.0080     0.0000    12.0000 </r>
       <r>    -4.8549     0.0000    12.0000 </r>
       <r>    -4.7018     0.0000    12.0000 </r>
       <r>    -4.5487     0.0000    12.0000 </r>
       <r>    -4.3956     0.0000    12.0000 </r>
       <r>    -4.2425     0.0000    12.0000 </r>
       <r>    -4.0894     0.0000    12.0000 </r>
       <r>    -3.9363     0.0000    12.0000 </r>
       <r>    -3.7832     0.0000    12.0000 </r>
       <r>    -3.6301     0.0000    12.0000 </r>
       <r>    -3.4770     0.0000    12.0000 </r>
       <r>    -3.3239     0.0000    12.0000 </r>
       <r>    -3.1707     0.0000    12.0000 </r>
       <r>    -3.0176     0.0000    12.0000 </r>
       <r>    -2.8645     0.0000    12.0000 </r>
       <r>    -2.7114    -0.0000    12.0000 </r>
       <r>    -2.5583    -0.0000    12.0000 </r>
       <r>    -2.4052    -0.0000    12.0000 </r>
       <r>    -2.2521    -0.0000    12.0000 </r>
       <r>    -2.0990    -0.0000    12.0000 </r>
       <r>    -1.9459    -0.0064    11.9990 </r>
       <r>    -1.7928     0.1114    12.0161 </r>
       <r>    -1.6397     0.6700    12.1186 </r>
       <r>    -1.4866     2.3887    12.4844 </r>
       <r>    -1.3335     4.0758    13.1084 </r>
       <r>    -1.1804     2.9646    13.5623 </r>
       <r>    -1.0273     1.1666    13.7409 </r>
       <r>    -0.8742     0.9096    13.8802 </r>
       <r>    -0.7210     1.6919    14.1392 </r>
       <r>    -0.5679     1.2983    14.3380 </r>
       <r>    -0.4148     1.9147    14.6311 </r>
       <r>    -0.2617     1.7620    14.9009 </r>
       <r>    -0.1086     3.7524    15.4754 </r>
       <r>     0.0445     2.7556    15.8973 </r>
       <r>     0.1976     4.2530    16.5485 </r>
       <r>     0.3507     3.5787    17.0964 </r>
       <r>     0.5038     3.3762    17.6133 </r>
       <r>     0.6569     1.8708    17.8998 </r>
       <r>     0.8100     0.6680    18.0020 </r>
       <r>     0.9631    -0.0123    18.0002 </r>
       <r>     1.1162    -0.0010    18.0000 </r>
       <r>     1.2693    -0.0000    18.0000 </r>
       <r>     1.4224    -0.0000    18.0000 </r>
       <r>     1.5755     0.0000    18.0000 </r>
       <r>     1.7287     0.0000    18.0000 </r>
       <r>     1.8818     0.0000    18.0000 </r>
       <r>     2.0349    -0.0000    18.0000 </r>
       <r>     2.1880    -0.0000    18.0000 </r>
       <r>     2.3411    -0.0000    18.0000 </r>
       <r>     2.4942    -0.0000    18.0000 </r>
       <r>     2.6473    -0.0000    18.0000 </r>
       <r>     2.8004    -0.0006    17.9999 </r>
       <r>     2.9535     0.0144    18.0021 </r>
       <r>     3.1066     0.0043    18.0028 </r>
       <r>     3.2597    -0.0002    18.0027 </r>
       <r>     3.4128    -0.0015    18.0025 </r>
       <r>     3.5659     0.0296    18.0070 </r>
       <r>     3.7190     0.1164    18.0249 </r>
       <r>     3.8721     0.0819    18.0374 </r>
       <r>     4.0252     0.0258    18.0413 </r>
       <r>     4.1784    -0.0032    18.0409 </r>
       <r>     4.3315     0.0389    18.0468 </r>
       <r>     4.4846     0.1813    18.0746 </r>
       <r>     4.6377     0.0515    18.0825 </r>
       <r>     4.7908     0.4141    18.1459 </r>
       <r>     4.9439     0.1101    18.1627 </r>
       <r>     5.0970    -0.0123    18.1608 </r>
       <r>     5.2501     0.1758    18.1877 </r>
       <r>     5.4032     0.6280    18.2839 </r>
       <r>     5.5563     0.4108    18.3468 </r>
       <r>     5.7094     0.6992    18.4538 </r>
       <r>     5.8625     1.2696    18.6482 </r>
       <r>     6.0156     0.6754    18.7516 </r>
       <r>     6.1687     0.5888    18.8418 </r>
       <r>     6.3218     1.3541    19.0491 </r>
       <r>     6.4750     1.3890    19.2618 </r>
       <r>     6.6281     1.4987    19.4912 </r>
       <r>     6.7812     1.3500    19.6979 </r>
       <r>     6.9343     0.2665    19.7387 </r>
       <r>     7.0874     0.5496    19.8229 </r>
       <r>     7.2405     0.8978    19.9603 </r>
       <r>     7.3936     0.7960    20.0822 </r>
       <r>     7.5467     0.7461    20.1964 </r>
       <r>     7.6998     0.0473    20.2037 </r>
       <r>     7.8529     0.9650    20.3514 </r>
       <r>     8.0060     0.7402    20.4647 </r>
       <r>     8.1591     1.9468    20.7628 </r>
       <r>     8.3122     3.1349    21.2428 </r>
       <r>     8.4653     1.2785    21.4385 </r>
       <r>     8.6184     1.0653    21.6016 </r>
       <r>     8.7715     3.7372    22.1738 </r>
       <r>     8.9247     2.7351    22.5926 </r>
       <r>     9.0778     0.6784    22.6964 </r>
       <r>     9.2309     0.2083    22.7283 </r>
       <r>     9.3840     0.4010    22.7897 </r>
       <r>     9.5371     0.4007    22.8511 </r>
       <r>     9.6902     1.3120    23.0520 </r>
       <r>     9.8433     3.2025    23.5423 </r>
       <r>     9.9964     2.8652    23.9810 </r>
       <r>    10.1495     1.8202    24.2597 </r>
       <r>    10.3026     2.3638    24.6216 </r>
       <r>    10.4557     2.1622    24.9526 </r>
       <r>    10.6088     1.2811    25.1488 </r>
       <r>    10.7619     0.5307    25.2300 </r>
       <r>    10.9150     0.8912    25.3665 </r>
       <r>    11.0681     0.5615    25.4524 </r>
       <r>    11.2212     0.2300    25.4876 </r>
       <r>    11.3744     0.5286    25.5686 </r>
       <r>    11.5275     0.5788    25.6572 </r>
       <r>    11.6806     0.6950    25.7636 </r>
       <r>    11.8337     0.5167    25.8427 </r>
       <r>    11.9868     0.8400    25.9713 </r>
       <r>    12.1399     0.0852    25.9844 </r>
       <r>    12.2930    -0.0054    25.9835 </r>
       <r>    12.4461    -0.0000    25.9835 </r>
       <r>    12.5992    -0.0006    25.9834 </r>
       <r>    12.7523     0.0114    25.9852 </r>
       <r>    12.9054     0.0991    26.0004 </r>
       <r>    13.0585    -0.0023    26.0000 </r>
       <r>    13.2116    -0.0001    26.0000 </r>
       <r>    13.3647    -0.0000    26.0000 </r>
       <r>    13.5178    -0.0000    26.0000 </r>
       <r>    13.6709     0.0000    26.0000 </r>
       <r>    13.8241     0.0000    26.0000 </r>
       <r>    13.9772     0.0000    26.0000 </r>
       <r>    14.1303     0.0000    26.0000 </r>
       <r>    14.2834     0.0000    26.0000 </r>
       <r>    14.4365     0.0000    26.0000 </r>
       <r>    14.5896     0.0000    26.0000 </r>
       <r>    14.7427     0.0000    26.0000 </r>
       <r>    14.8958     0.0000    26.0000 </r>
      </set>
     </set>
    </array>
   </total>
  </dos>
 </calculation>
 <structure name="finalpos" >
  <crystal>
   <varray name="basis" >
    <v>       4.48997469       0.00000000       0.00000000 </v>
    <v>       2.24498735       3.88843215      -0.00000000 </v>
    <v>       2.24498735       1.29614405       3.66604899 </v>
   </varray>
   <i name="volume">     64.00540968 </i>
   <varray name="rec_basis" >
    <v>       0.22271840      -0.12858653      -0.09092441 </v>
    <v>       0.00000000       0.25717306      -0.09092441 </v>
    <v>      -0.00000000       0.00000000       0.27277322 </v>
   </varray>
  </crystal>
  <varray name="positions" >
   <v>       0.00000000       0.00000000       0.00000000 </v>
  </varray>
  <varray name="velocities" >
   <v>       0.00000000       0.00000000       0.00000000 </v>
  </varray>
 </structure>
</modeling>
