   1   1   0   0
  0.6532254E+02  0.4520565E-09  0.4520565E-09  0.4520565E-09  0.1000000E-15
  1.000000000000000E-004
  CAR 
 Og_FCC                                  
     14.89980462    -49.93416058  301     -1.90299803      1.00000000
    -49.934  0.0000E+00  0.0000E+00
    -49.718  0.0000E+00  0.0000E+00
    -49.502  0.0000E+00  0.0000E+00
    -49.286  0.0000E+00  0.0000E+00
    -49.070  0.0000E+00  0.0000E+00
    -48.854  0.0000E+00  0.0000E+00
    -48.637  0.0000E+00  0.0000E+00
    -48.421  0.0000E+00  0.0000E+00
    -48.205  0.0000E+00  0.0000E+00
    -47.989  0.0000E+00  0.0000E+00
    -47.773  0.0000E+00  0.0000E+00
    -47.557  0.0000E+00  0.0000E+00
    -47.341  0.0000E+00  0.0000E+00
    -47.125  0.8712E-03  0.1883E-03
    -46.909  0.1826E+02  0.3945E+01
    -46.692  0.2527E+00  0.4000E+01
    -46.476  0.0000E+00  0.4000E+01
    -46.260  0.0000E+00  0.4000E+01
    -46.044  0.0000E+00  0.4000E+01
    -45.828  0.0000E+00  0.4000E+01
    -45.612  0.0000E+00  0.4000E+01
    -45.396  0.0000E+00  0.4000E+01
    -45.180  0.0000E+00  0.4000E+01
    -44.964  0.0000E+00  0.4000E+01
    -44.747  0.0000E+00  0.4000E+01
    -44.531  0.0000E+00  0.4000E+01
    -44.315  0.0000E+00  0.4000E+01
    -44.099  0.0000E+00  0.4000E+01
    -43.883  0.0000E+00  0.4000E+01
    -43.667  0.0000E+00  0.4000E+01
    -43.451  0.0000E+00  0.4000E+01
    -43.235  0.0000E+00  0.4000E+01
    -43.019  0.0000E+00  0.4000E+01
    -42.802  0.0000E+00  0.4000E+01
    -42.586  0.5006E-02  0.4001E+01
    -42.370  0.2761E+02  0.9967E+01
    -42.154  0.1520E+00  0.1000E+02
    -41.938  0.0000E+00  0.1000E+02
    -41.722  0.0000E+00  0.1000E+02
    -41.506  0.0000E+00  0.1000E+02
    -41.290  0.0000E+00  0.1000E+02
    -41.074  0.0000E+00  0.1000E+02
    -40.857  0.0000E+00  0.1000E+02
    -40.641  0.0000E+00  0.1000E+02
    -40.425  0.0000E+00  0.1000E+02
    -40.209  0.0000E+00  0.1000E+02
    -39.993  0.0000E+00  0.1000E+02
    -39.777  0.0000E+00  0.1000E+02
    -39.561  0.0000E+00  0.1000E+02
    -39.345  0.0000E+00  0.1000E+02
    -39.128  0.0000E+00  0.1000E+02
    -38.912  0.0000E+00  0.1000E+02
    -38.696  0.0000E+00  0.1000E+02
    -38.480  0.0000E+00  0.1000E+02
    -38.264  0.0000E+00  0.1000E+02
    -38.048  0.0000E+00  0.1000E+02
    -37.832  0.0000E+00  0.1000E+02
    -37.616  0.0000E+00  0.1000E+02
    -37.400  0.0000E+00  0.1000E+02
    -37.183  0.0000E+00  0.1000E+02
    -36.967  0.0000E+00  0.1000E+02
    -36.751  0.0000E+00  0.1000E+02
    -36.535  0.0000E+00  0.1000E+02
    -36.319  0.0000E+00  0.1000E+02
    -36.103  0.0000E+00  0.1000E+02
    -35.887  0.0000E+00  0.1000E+02
    -35.671  0.0000E+00  0.1000E+02
    -35.455  0.0000E+00  0.1000E+02
    -35.238  0.0000E+00  0.1000E+02
    -35.022  0.0000E+00  0.1000E+02
    -34.806  0.0000E+00  0.1000E+02
    -34.590  0.0000E+00  0.1000E+02
    -34.374  0.0000E+00  0.1000E+02
    -34.158  0.0000E+00  0.1000E+02
    -33.942  0.0000E+00  0.1000E+02
    -33.726  0.0000E+00  0.1000E+02
    -33.510  0.0000E+00  0.1000E+02
    -33.293  0.0000E+00  0.1000E+02
    -33.077  0.0000E+00  0.1000E+02
    -32.861  0.0000E+00  0.1000E+02
    -32.645  0.0000E+00  0.1000E+02
    -32.429  0.0000E+00  0.1000E+02
    -32.213  0.0000E+00  0.1000E+02
    -31.997  0.0000E+00  0.1000E+02
    -31.781  0.0000E+00  0.1000E+02
    -31.565  0.0000E+00  0.1000E+02
    -31.348  0.0000E+00  0.1000E+02
    -31.132  0.0000E+00  0.1000E+02
    -30.916  0.0000E+00  0.1000E+02
    -30.700  0.0000E+00  0.1000E+02
    -30.484  0.0000E+00  0.1000E+02
    -30.268  0.0000E+00  0.1000E+02
    -30.052  0.0000E+00  0.1000E+02
    -29.836  0.0000E+00  0.1000E+02
    -29.620  0.0000E+00  0.1000E+02
    -29.403  0.0000E+00  0.1000E+02
    -29.187  0.0000E+00  0.1000E+02
    -28.971  0.0000E+00  0.1000E+02
    -28.755  0.0000E+00  0.1000E+02
    -28.539  0.0000E+00  0.1000E+02
    -28.323  0.0000E+00  0.1000E+02
    -28.107  0.0000E+00  0.1000E+02
    -27.891  0.0000E+00  0.1000E+02
    -27.674  0.0000E+00  0.1000E+02
    -27.458  0.0000E+00  0.1000E+02
    -27.242  0.0000E+00  0.1000E+02
    -27.026  0.0000E+00  0.1000E+02
    -26.810  0.0000E+00  0.1000E+02
    -26.594  0.0000E+00  0.1000E+02
    -26.378  0.0000E+00  0.1000E+02
    -26.162  0.0000E+00  0.1000E+02
    -25.946  0.0000E+00  0.1000E+02
    -25.729  0.0000E+00  0.1000E+02
    -25.513  0.0000E+00  0.1000E+02
    -25.297  0.0000E+00  0.1000E+02
    -25.081  0.0000E+00  0.1000E+02
    -24.865  0.0000E+00  0.1000E+02
    -24.649  0.0000E+00  0.1000E+02
    -24.433  0.0000E+00  0.1000E+02
    -24.217  0.0000E+00  0.1000E+02
    -24.001  0.0000E+00  0.1000E+02
    -23.784  0.0000E+00  0.1000E+02
    -23.568  0.0000E+00  0.1000E+02
    -23.352  0.0000E+00  0.1000E+02
    -23.136  0.0000E+00  0.1000E+02
    -22.920  0.0000E+00  0.1000E+02
    -22.704  0.0000E+00  0.1000E+02
    -22.488  0.0000E+00  0.1000E+02
    -22.272  0.0000E+00  0.1000E+02
    -22.056  0.0000E+00  0.1000E+02
    -21.839  0.0000E+00  0.1000E+02
    -21.623  0.0000E+00  0.1000E+02
    -21.407  0.0000E+00  0.1000E+02
    -21.191  0.0000E+00  0.1000E+02
    -20.975  0.0000E+00  0.1000E+02
    -20.759  0.0000E+00  0.1000E+02
    -20.543  0.0000E+00  0.1000E+02
    -20.327  0.0000E+00  0.1000E+02
    -20.111  0.0000E+00  0.1000E+02
    -19.894  0.0000E+00  0.1000E+02
    -19.678  0.0000E+00  0.1000E+02
    -19.462  0.8583E-13  0.1000E+02
    -19.246  0.2177E-01  0.1000E+02
    -19.030  0.6388E+01  0.1139E+02
    -18.814  0.2845E+01  0.1200E+02
    -18.598  0.0000E+00  0.1200E+02
    -18.382  0.0000E+00  0.1200E+02
    -18.166  0.0000E+00  0.1200E+02
    -17.949  0.0000E+00  0.1200E+02
    -17.733  0.0000E+00  0.1200E+02
    -17.517  0.0000E+00  0.1200E+02
    -17.301  0.0000E+00  0.1200E+02
    -17.085  0.0000E+00  0.1200E+02
    -16.869  0.0000E+00  0.1200E+02
    -16.653  0.0000E+00  0.1200E+02
    -16.437  0.0000E+00  0.1200E+02
    -16.220  0.0000E+00  0.1200E+02
    -16.004  0.0000E+00  0.1200E+02
    -15.788  0.0000E+00  0.1200E+02
    -15.572  0.0000E+00  0.1200E+02
    -15.356  0.0000E+00  0.1200E+02
    -15.140  0.0000E+00  0.1200E+02
    -14.924  0.0000E+00  0.1200E+02
    -14.708  0.0000E+00  0.1200E+02
    -14.492  0.0000E+00  0.1200E+02
    -14.275  0.0000E+00  0.1200E+02
    -14.059  0.0000E+00  0.1200E+02
    -13.843  0.0000E+00  0.1200E+02
    -13.627  0.0000E+00  0.1200E+02
    -13.411  0.0000E+00  0.1200E+02
    -13.195  0.0000E+00  0.1200E+02
    -12.979  0.0000E+00  0.1200E+02
    -12.763  0.0000E+00  0.1200E+02
    -12.547  0.0000E+00  0.1200E+02
    -12.330  0.0000E+00  0.1200E+02
    -12.114  0.0000E+00  0.1200E+02
    -11.898  0.0000E+00  0.1200E+02
    -11.682  0.0000E+00  0.1200E+02
    -11.466  0.0000E+00  0.1200E+02
    -11.250  0.0000E+00  0.1200E+02
    -11.034  0.0000E+00  0.1200E+02
    -10.818  0.0000E+00  0.1200E+02
    -10.602  0.0000E+00  0.1200E+02
    -10.385  0.0000E+00  0.1200E+02
    -10.169  0.0000E+00  0.1200E+02
     -9.953  0.0000E+00  0.1200E+02
     -9.737  0.0000E+00  0.1200E+02
     -9.521  0.0000E+00  0.1200E+02
     -9.305  0.0000E+00  0.1200E+02
     -9.089  0.0000E+00  0.1200E+02
     -8.873  0.0000E+00  0.1200E+02
     -8.657  0.0000E+00  0.1200E+02
     -8.440  0.0000E+00  0.1200E+02
     -8.224  0.0000E+00  0.1200E+02
     -8.008  0.0000E+00  0.1200E+02
     -7.792  0.0000E+00  0.1200E+02
     -7.576  0.0000E+00  0.1200E+02
     -7.360  0.0000E+00  0.1200E+02
     -7.144  0.0000E+00  0.1200E+02
     -6.928  0.1075E-10  0.1200E+02
     -6.712  0.3190E+00  0.1207E+02
     -6.495  0.6458E+01  0.1346E+02
     -6.279  0.1819E+01  0.1386E+02
     -6.063  0.6198E+00  0.1399E+02
     -5.847  0.3779E-01  0.1400E+02
     -5.631  0.1066E-07  0.1400E+02
     -5.415  0.0000E+00  0.1400E+02
     -5.199  0.0000E+00  0.1400E+02
     -4.983  0.0000E+00  0.1400E+02
     -4.766  0.0000E+00  0.1400E+02
     -4.550  0.0000E+00  0.1400E+02
     -4.334  0.0000E+00  0.1400E+02
     -4.118  0.0000E+00  0.1400E+02
     -3.902  0.1875E-06  0.1400E+02
     -3.686  0.1479E+01  0.1432E+02
     -3.470  0.5076E+01  0.1542E+02
     -3.254  0.1252E+01  0.1569E+02
     -3.038  0.1936E+01  0.1611E+02
     -2.821  0.2975E+01  0.1675E+02
     -2.605  0.3071E+01  0.1741E+02
     -2.389  0.1847E+01  0.1781E+02
     -2.173  0.8169E+00  0.1799E+02
     -1.957  0.5632E-01  0.1800E+02
     -1.741  0.0000E+00  0.1800E+02
     -1.525  0.0000E+00  0.1800E+02
     -1.309  0.0000E+00  0.1800E+02
     -1.093  0.0000E+00  0.1800E+02
     -0.876  0.0000E+00  0.1800E+02
     -0.660  0.0000E+00  0.1800E+02
     -0.444  0.0000E+00  0.1800E+02
     -0.228  0.0000E+00  0.1800E+02
     -0.012  0.0000E+00  0.1800E+02
      0.204  0.0000E+00  0.1800E+02
      0.420  0.0000E+00  0.1800E+02
      0.636  0.0000E+00  0.1800E+02
      0.852  0.0000E+00  0.1800E+02
      1.069  0.0000E+00  0.1800E+02
      1.285  0.0000E+00  0.1800E+02
      1.501  0.0000E+00  0.1800E+02
      1.717  0.0000E+00  0.1800E+02
      1.933  0.0000E+00  0.1800E+02
      2.149  0.0000E+00  0.1800E+02
      2.365  0.4757E-17  0.1800E+02
      2.581  0.7325E-03  0.1800E+02
      2.797  0.4211E-01  0.1801E+02
      3.014  0.1387E-05  0.1801E+02
      3.230  0.1653E-11  0.1801E+02
      3.446  0.8303E-01  0.1803E+02
      3.662  0.2606E+00  0.1808E+02
      3.878  0.2561E+00  0.1814E+02
      4.094  0.8349E-04  0.1814E+02
      4.310  0.4037E-02  0.1814E+02
      4.526  0.1051E+01  0.1837E+02
      4.742  0.4533E+00  0.1846E+02
      4.959  0.1957E+01  0.1889E+02
      5.175  0.1031E+01  0.1911E+02
      5.391  0.1664E+01  0.1947E+02
      5.607  0.1517E+01  0.1980E+02
      5.823  0.7469E+00  0.1996E+02
      6.039  0.1598E+01  0.2030E+02
      6.255  0.5335E+00  0.2042E+02
      6.471  0.1339E+01  0.2071E+02
      6.688  0.3304E+01  0.2142E+02
      6.904  0.2393E+01  0.2194E+02
      7.120  0.4026E+00  0.2203E+02
      7.336  0.1025E+01  0.2225E+02
      7.552  0.8459E+00  0.2243E+02
      7.768  0.2661E+01  0.2301E+02
      7.984  0.2077E+01  0.2346E+02
      8.200  0.1656E+01  0.2381E+02
      8.416  0.3588E+01  0.2459E+02
      8.633  0.3182E+00  0.2466E+02
      8.849  0.3608E+01  0.2544E+02
      9.065  0.2867E+00  0.2550E+02
      9.281  0.5650E+00  0.2562E+02
      9.497  0.1106E+01  0.2586E+02
      9.713  0.7064E-03  0.2586E+02
      9.929  0.2233E+01  0.2634E+02
     10.145  0.1450E+01  0.2666E+02
     10.361  0.2073E+01  0.2711E+02
     10.578  0.1301E+01  0.2739E+02
     10.794  0.9295E+00  0.2759E+02
     11.010  0.1125E+01  0.2783E+02
     11.226  0.1324E-01  0.2783E+02
     11.442  0.1190E-01  0.2784E+02
     11.658  0.1166E+00  0.2786E+02
     11.874  0.4435E+00  0.2796E+02
     12.090  0.1991E+00  0.2800E+02
     12.306  0.5609E-05  0.2800E+02
     12.523  0.0000E+00  0.2800E+02
     12.739  0.0000E+00  0.2800E+02
     12.955  0.0000E+00  0.2800E+02
     13.171  0.0000E+00  0.2800E+02
     13.387  0.0000E+00  0.2800E+02
     13.603  0.0000E+00  0.2800E+02
     13.819  0.0000E+00  0.2800E+02
     14.035  0.0000E+00  0.2800E+02
     14.251  0.0000E+00  0.2800E+02
     14.468  0.0000E+00  0.2800E+02
     14.684  0.0000E+00  0.2800E+02
     14.900  0.0000E+00  0.2800E+02
