       N       E                     dE             d eps       ncg     rms          ort
DAV:   1     0.439993640696E+02    0.43999E+02   -0.23044E+00  6048   0.186E+01
DAV:   2     0.439883317103E+02   -0.11032E-01   -0.11031E-01  6048   0.341E+00
DAV:   3     0.439863353928E+02   -0.19963E-02   -0.19963E-02  6048   0.136E+00
DAV:   4     0.439857443353E+02   -0.59106E-03   -0.59105E-03  6048   0.680E-01
DAV:   5     0.439855003252E+02   -0.24401E-03   -0.24401E-03  6048   0.431E-01
SDA:   6    -0.923900292015E+00   -0.44909E+02   -0.36890E+01  6048   0.615E+01 0.000E+00
DMP:   7     0.951038960850E+01    0.10434E+02   -0.10685E+03  6048   0.190E+03-0.396E+02
DMP:   8     0.148857843026E+03    0.13935E+03   -0.84787E+04  6048   0.143E+05-0.606E+03
DMP:   9     0.787741919890E+03    0.63888E+03   -0.66472E+04  6048   0.115E+05-0.129E+04
DMP:  10     0.103230732963E+03   -0.68451E+03   -0.77628E+03  6048   0.145E+04-0.522E+03
DMP:  11     0.131113369605E+03    0.27883E+02   -0.66916E+03  6048   0.127E+04-0.541E+03
DMP:  12     0.742591546641E+02   -0.56854E+02   -0.31103E+03  6048   0.598E+03-0.272E+03
DMP:  13     0.140842923207E+03    0.66584E+02   -0.17860E+03  6048   0.441E+03-0.490E+03
DMP:  14     0.903981278798E+02   -0.50445E+02   -0.36959E+03  6048   0.625E+03-0.320E+02
DMP:  15     0.123058558764E+03    0.32660E+02   -0.62147E+03  6048   0.110E+04-0.215E+03
DMP:  16     0.613445275294E+02   -0.61714E+02   -0.56638E+03  6048   0.998E+03-0.184E+03
DMP:  17     0.897707768206E+02    0.28426E+02   -0.51309E+03  6048   0.901E+03-0.155E+03
DMP:  18     0.798802406820E+02   -0.98905E+01   -0.39033E+03  6048   0.700E+03-0.170E+03
DMP:  19     0.684435622351E+02   -0.11437E+02   -0.50080E+03  6048   0.882E+03-0.162E+03
DMP:  20     0.852679698797E+02    0.16824E+02   -0.48727E+03  6048   0.865E+03-0.180E+03
DMP:  21     0.870463041271E+02    0.17783E+01   -0.35797E+03  6048   0.642E+03-0.154E+03
DMP:  22     0.708224093858E+02   -0.16224E+02   -0.27315E+03  6048   0.501E+03-0.156E+03
DMP:  23     0.572098837295E+02   -0.13613E+02   -0.19964E+03  6048   0.368E+03-0.120E+03
DMP:  24     0.620513539113E+02    0.48415E+01   -0.13245E+03  6048   0.258E+03-0.128E+03
DMP:  25     0.408364496575E+02   -0.21215E+02   -0.61252E+02  6048   0.121E+03-0.655E+02
DMP:  26     0.271613199800E+02   -0.13675E+02   -0.30720E+02  6048   0.596E+02-0.286E+02
DMP:  27     0.176583851710E+02   -0.95029E+01   -0.11632E+02  6048   0.229E+02-0.120E+02
DMP:  28     0.105447188470E+02   -0.71137E+01   -0.71996E+01  6048   0.105E+02 0.521E+01
DMP:  29     0.602791063724E+01   -0.45168E+01   -0.36794E+01  6048   0.517E+01 0.330E+01
DMP:  30     0.335570082896E+01   -0.26722E+01   -0.22894E+01  6048   0.299E+01 0.283E+01
DMP:  31     0.158718506889E+01   -0.17685E+01   -0.14836E+01  6048   0.186E+01 0.209E+01
DMP:  32     0.420589941782E+00   -0.11666E+01   -0.89812E+00  6048   0.108E+01 0.142E+01
DMP:  33    -0.298353994969E+00   -0.71894E+00   -0.55719E+00  6048   0.665E+00 0.901E+00
DMP:  34    -0.774516740601E+00   -0.47616E+00   -0.38731E+00  6048   0.453E+00 0.659E+00
DMP:  35    -0.111050145770E+01   -0.33598E+00   -0.26397E+00  6048   0.301E+00 0.475E+00
DMP:  36    -0.134016468389E+01   -0.22966E+00   -0.17711E+00  6048   0.200E+00 0.326E+00
DMP:  37    -0.149404938987E+01   -0.15388E+00   -0.11634E+00  6048   0.130E+00 0.218E+00
DMP:  38    -0.159466084144E+01   -0.10061E+00   -0.74203E-01  6048   0.823E-01 0.142E+00
DMP:  39    -0.165824875898E+01   -0.63588E-01   -0.45998E-01  6048   0.509E-01 0.883E-01
DMP:  40    -0.169699892337E+01   -0.38750E-01   -0.27939E-01  6048   0.312E-01 0.525E-01
DMP:  41    -0.171982511165E+01   -0.22826E-01   -0.17218E-01  6048   0.201E-01 0.295E-01
DMP:  42    -0.173304639956E+01   -0.13221E-01   -0.10929E-01  6048   0.137E-01 0.154E-01
DMP:  43    -0.174071191521E+01   -0.76655E-02   -0.74890E-02  6048   0.103E-01 0.732E-02
DMP:  44    -0.174520046038E+01   -0.44885E-02   -0.60750E-02  6048   0.939E-02 0.252E-02
DMP:  45    -0.174784646175E+01   -0.26460E-02   -0.66867E-02  6048   0.115E-01-0.137E-02
DMP:  46    -0.174909188519E+01   -0.12454E-02   -0.94399E-02  6048   0.177E-01-0.690E-02
DMP:  47    -0.174983702949E+01   -0.74514E-03   -0.12680E-01  6048   0.250E-01-0.134E-01
DMP:  48    -0.175022746884E+01   -0.39044E-03   -0.14998E-01  6048   0.307E-01-0.197E-01
DMP:  49    -0.175166175147E+01   -0.14343E-02   -0.13368E-01  6048   0.282E-01-0.204E-01
DMP:  50    -0.175335643770E+01   -0.16947E-02   -0.94222E-02  6048   0.205E-01-0.165E-01
   1 F= -.17533564E+01 E0= -.17533564E+01  d E =-.128277E-14  mag=    -0.0000     0.0000    -0.0000
