   1   1   0   0
  0.6083477E+02  0.4414576E-09  0.4414576E-09  0.4414576E-09  0.1000000E-15
  1.000000000000000E-004
  CAR 
 Og_FCC                                  
     77.12551473    -49.55923623  301     -0.46889523      1.00000000
    -49.559  0.0000E+00  0.0000E+00
    -49.137  0.0000E+00  0.0000E+00
    -48.715  0.0000E+00  0.0000E+00
    -48.292  0.0000E+00  0.0000E+00
    -47.870  0.0000E+00  0.0000E+00
    -47.448  0.0000E+00  0.0000E+00
    -47.026  0.0000E+00  0.0000E+00
    -46.603  0.0000E+00  0.0000E+00
    -46.181  0.0000E+00  0.0000E+00
    -45.759  0.0000E+00  0.0000E+00
    -45.336  0.0000E+00  0.0000E+00
    -44.914  0.0000E+00  0.0000E+00
    -44.492  0.0000E+00  0.0000E+00
    -44.070  0.4216E-12  0.1780E-12
    -43.647  0.9472E+01  0.4000E+01
    -43.225  0.0000E+00  0.4000E+01
    -42.803  0.0000E+00  0.4000E+01
    -42.380  0.0000E+00  0.4000E+01
    -41.958  0.0000E+00  0.4000E+01
    -41.536  0.0000E+00  0.4000E+01
    -41.114  0.0000E+00  0.4000E+01
    -40.691  0.0000E+00  0.4000E+01
    -40.269  0.0000E+00  0.4000E+01
    -39.847  0.0000E+00  0.4000E+01
    -39.424  0.3941E+01  0.5664E+01
    -39.002  0.1027E+02  0.1000E+02
    -38.580  0.0000E+00  0.1000E+02
    -38.158  0.0000E+00  0.1000E+02
    -37.735  0.0000E+00  0.1000E+02
    -37.313  0.0000E+00  0.1000E+02
    -36.891  0.0000E+00  0.1000E+02
    -36.468  0.0000E+00  0.1000E+02
    -36.046  0.0000E+00  0.1000E+02
    -35.624  0.0000E+00  0.1000E+02
    -35.202  0.0000E+00  0.1000E+02
    -34.779  0.0000E+00  0.1000E+02
    -34.357  0.0000E+00  0.1000E+02
    -33.935  0.0000E+00  0.1000E+02
    -33.513  0.0000E+00  0.1000E+02
    -33.090  0.0000E+00  0.1000E+02
    -32.668  0.0000E+00  0.1000E+02
    -32.246  0.0000E+00  0.1000E+02
    -31.823  0.0000E+00  0.1000E+02
    -31.401  0.0000E+00  0.1000E+02
    -30.979  0.0000E+00  0.1000E+02
    -30.557  0.0000E+00  0.1000E+02
    -30.134  0.0000E+00  0.1000E+02
    -29.712  0.0000E+00  0.1000E+02
    -29.290  0.0000E+00  0.1000E+02
    -28.867  0.0000E+00  0.1000E+02
    -28.445  0.0000E+00  0.1000E+02
    -28.023  0.0000E+00  0.1000E+02
    -27.601  0.0000E+00  0.1000E+02
    -27.178  0.0000E+00  0.1000E+02
    -26.756  0.0000E+00  0.1000E+02
    -26.334  0.0000E+00  0.1000E+02
    -25.911  0.0000E+00  0.1000E+02
    -25.489  0.0000E+00  0.1000E+02
    -25.067  0.0000E+00  0.1000E+02
    -24.645  0.0000E+00  0.1000E+02
    -24.222  0.0000E+00  0.1000E+02
    -23.800  0.0000E+00  0.1000E+02
    -23.378  0.0000E+00  0.1000E+02
    -22.955  0.0000E+00  0.1000E+02
    -22.533  0.0000E+00  0.1000E+02
    -22.111  0.0000E+00  0.1000E+02
    -21.689  0.0000E+00  0.1000E+02
    -21.266  0.0000E+00  0.1000E+02
    -20.844  0.0000E+00  0.1000E+02
    -20.422  0.0000E+00  0.1000E+02
    -19.999  0.0000E+00  0.1000E+02
    -19.577  0.0000E+00  0.1000E+02
    -19.155  0.0000E+00  0.1000E+02
    -18.733  0.0000E+00  0.1000E+02
    -18.310  0.0000E+00  0.1000E+02
    -17.888  0.0000E+00  0.1000E+02
    -17.466  0.0000E+00  0.1000E+02
    -17.043  0.1152E+00  0.1005E+02
    -16.621  0.4501E+01  0.1200E+02
    -16.199  0.0000E+00  0.1200E+02
    -15.777  0.0000E+00  0.1200E+02
    -15.354  0.0000E+00  0.1200E+02
    -14.932  0.0000E+00  0.1200E+02
    -14.510  0.0000E+00  0.1200E+02
    -14.088  0.0000E+00  0.1200E+02
    -13.665  0.0000E+00  0.1200E+02
    -13.243  0.0000E+00  0.1200E+02
    -12.821  0.0000E+00  0.1200E+02
    -12.398  0.0000E+00  0.1200E+02
    -11.976  0.0000E+00  0.1200E+02
    -11.554  0.0000E+00  0.1200E+02
    -11.132  0.0000E+00  0.1200E+02
    -10.709  0.0000E+00  0.1200E+02
    -10.287  0.0000E+00  0.1200E+02
     -9.865  0.0000E+00  0.1200E+02
     -9.442  0.0000E+00  0.1200E+02
     -9.020  0.0000E+00  0.1200E+02
     -8.598  0.0000E+00  0.1200E+02
     -8.176  0.0000E+00  0.1200E+02
     -7.753  0.0000E+00  0.1200E+02
     -7.331  0.0000E+00  0.1200E+02
     -6.909  0.0000E+00  0.1200E+02
     -6.486  0.0000E+00  0.1200E+02
     -6.064  0.0000E+00  0.1200E+02
     -5.642  0.5053E-10  0.1200E+02
     -5.220  0.3407E+01  0.1344E+02
     -4.797  0.1206E+01  0.1397E+02
     -4.375  0.2193E-01  0.1400E+02
     -3.953  0.0000E+00  0.1400E+02
     -3.530  0.0000E+00  0.1400E+02
     -3.108  0.0000E+00  0.1400E+02
     -2.686  0.1284E-02  0.1400E+02
     -2.264  0.3437E+01  0.1545E+02
     -1.841  0.1662E+01  0.1616E+02
     -1.419  0.2592E+01  0.1733E+02
     -0.997  0.1215E+01  0.1792E+02
     -0.574  0.1830E+00  0.1800E+02
     -0.152  0.0000E+00  0.1800E+02
      0.270  0.0000E+00  0.1800E+02
      0.692  0.0000E+00  0.1800E+02
      1.115  0.0000E+00  0.1800E+02
      1.537  0.0000E+00  0.1800E+02
      1.959  0.0000E+00  0.1800E+02
      2.382  0.0000E+00  0.1800E+02
      2.804  0.7013E-02  0.1800E+02
      3.226  0.1491E-01  0.1801E+02
      3.648  0.8211E-02  0.1801E+02
      4.071  0.2824E+00  0.1813E+02
      4.493  0.6730E-01  0.1817E+02
      4.915  0.7720E+00  0.1849E+02
      5.337  0.1698E+01  0.1922E+02
      5.760  0.1306E+01  0.1979E+02
      6.182  0.1146E+01  0.2031E+02
      6.604  0.1189E+01  0.2081E+02
      7.027  0.2690E+01  0.2200E+02
      7.449  0.6868E+00  0.2232E+02
      7.871  0.1382E+01  0.2291E+02
      8.293  0.1545E+01  0.2368E+02
      8.716  0.2274E+01  0.2466E+02
      9.138  0.1959E+01  0.2550E+02
      9.560  0.7735E+00  0.2583E+02
      9.983  0.8895E+00  0.2621E+02
     10.405  0.1923E+01  0.2707E+02
     10.827  0.1247E+01  0.2771E+02
     11.249  0.1621E+01  0.2842E+02
     11.672  0.1067E+01  0.2888E+02
     12.094  0.1938E+01  0.2970E+02
     12.516  0.2045E+01  0.3056E+02
     12.939  0.1267E+01  0.3112E+02
     13.361  0.8768E+00  0.3149E+02
     13.783  0.4665E+01  0.3346E+02
     14.205  0.2266E+01  0.3453E+02
     14.628  0.1890E+01  0.3533E+02
     15.050  0.6920E+00  0.3563E+02
     15.472  0.9309E+00  0.3614E+02
     15.895  0.1872E+01  0.3695E+02
     16.317  0.3955E+01  0.3877E+02
     16.739  0.5505E+01  0.4112E+02
     17.161  0.2956E+01  0.4254E+02
     17.584  0.3318E+01  0.4398E+02
     18.006  0.2716E+00  0.4425E+02
     18.428  0.1735E+01  0.4500E+02
     18.851  0.1033E+01  0.4548E+02
     19.273  0.1921E+01  0.4629E+02
     19.695  0.2485E+01  0.4743E+02
     20.117  0.1456E+01  0.4805E+02
     20.540  0.2306E+01  0.4907E+02
     20.962  0.2909E+01  0.5038E+02
     21.384  0.2113E+01  0.5127E+02
     21.807  0.3309E+01  0.5267E+02
     22.229  0.2648E+01  0.5391E+02
     22.651  0.3431E+01  0.5539E+02
     23.073  0.2849E+01  0.5659E+02
     23.496  0.2412E+01  0.5762E+02
     23.918  0.4363E+00  0.5781E+02
     24.340  0.1700E+01  0.5856E+02
     24.762  0.2419E+01  0.5961E+02
     25.185  0.2002E+01  0.6049E+02
     25.607  0.1944E+01  0.6135E+02
     26.029  0.1879E+01  0.6216E+02
     26.452  0.2284E+01  0.6328E+02
     26.874  0.1821E+01  0.6406E+02
     27.296  0.2664E+01  0.6522E+02
     27.718  0.2036E+01  0.6620E+02
     28.141  0.4075E+01  0.6806E+02
     28.563  0.3630E+01  0.6965E+02
     28.985  0.2215E+01  0.7089E+02
     29.408  0.1667E+01  0.7171E+02
     29.830  0.1627E+01  0.7241E+02
     30.252  0.1316E+01  0.7296E+02
     30.674  0.1643E+01  0.7366E+02
     31.097  0.2668E+01  0.7480E+02
     31.519  0.1768E+01  0.7559E+02
     31.941  0.3812E+01  0.7738E+02
     32.364  0.2764E+01  0.7878E+02
     32.786  0.3638E+01  0.8033E+02
     33.208  0.2743E+01  0.8149E+02
     33.630  0.3041E+01  0.8281E+02
     34.053  0.1329E+01  0.8344E+02
     34.475  0.3026E+01  0.8473E+02
     34.897  0.1439E+01  0.8549E+02
     35.320  0.3209E+01  0.8685E+02
     35.742  0.1833E+01  0.8763E+02
     36.164  0.2966E+01  0.8890E+02
     36.586  0.1231E+01  0.8943E+02
     37.009  0.3057E+01  0.9074E+02
     37.431  0.1937E+01  0.9160E+02
     37.853  0.3628E+01  0.9315E+02
     38.276  0.2900E+01  0.9451E+02
     38.698  0.3097E+01  0.9593E+02
     39.120  0.2456E+01  0.9696E+02
     39.542  0.1614E+01  0.9788E+02
     39.965  0.1645E+01  0.9864E+02
     40.387  0.3683E+01  0.1003E+03
     40.809  0.2557E+01  0.1015E+03
     41.232  0.3144E+01  0.1029E+03
     41.654  0.2334E+01  0.1039E+03
     42.076  0.3085E+01  0.1054E+03
     42.498  0.4202E+01  0.1072E+03
     42.921  0.2591E+01  0.1084E+03
     43.343  0.9872E+00  0.1088E+03
     43.765  0.2870E+01  0.1100E+03
     44.187  0.2968E+01  0.1113E+03
     44.610  0.3186E+01  0.1128E+03
     45.032  0.3541E+01  0.1143E+03
     45.454  0.2620E+01  0.1155E+03
     45.877  0.3541E+01  0.1171E+03
     46.299  0.2898E+01  0.1184E+03
     46.721  0.1778E+01  0.1191E+03
     47.143  0.3050E+01  0.1206E+03
     47.566  0.1697E+01  0.1213E+03
     47.988  0.2144E+01  0.1223E+03
     48.410  0.3079E+01  0.1237E+03
     48.833  0.2251E+01  0.1248E+03
     49.255  0.4860E+01  0.1269E+03
     49.677  0.2751E+01  0.1281E+03
     50.099  0.4038E+01  0.1298E+03
     50.522  0.2319E+01  0.1310E+03
     50.944  0.3142E+01  0.1323E+03
     51.366  0.2368E+01  0.1334E+03
     51.789  0.2310E+01  0.1344E+03
     52.211  0.3733E+01  0.1360E+03
     52.633  0.2736E+01  0.1372E+03
     53.055  0.2690E+01  0.1384E+03
     53.478  0.3978E+01  0.1402E+03
     53.900  0.2620E+01  0.1415E+03
     54.322  0.2178E+01  0.1424E+03
     54.745  0.3757E+01  0.1441E+03
     55.167  0.2354E+01  0.1452E+03
     55.589  0.3734E+01  0.1468E+03
     56.011  0.5767E+00  0.1473E+03
     56.434  0.3020E+01  0.1486E+03
     56.856  0.4428E+01  0.1505E+03
     57.278  0.4029E+01  0.1523E+03
     57.701  0.3084E+01  0.1537E+03
     58.123  0.2670E+01  0.1548E+03
     58.545  0.4031E+01  0.1565E+03
     58.967  0.2660E+01  0.1577E+03
     59.390  0.2996E+01  0.1591E+03
     59.812  0.1665E+01  0.1598E+03
     60.234  0.4465E+01  0.1617E+03
     60.656  0.5469E+01  0.1642E+03
     61.079  0.2674E+01  0.1655E+03
     61.501  0.5866E+01  0.1680E+03
     61.923  0.2652E+01  0.1691E+03
     62.346  0.1727E+01  0.1700E+03
     62.768  0.2429E+01  0.1710E+03
     63.190  0.3778E+01  0.1726E+03
     63.612  0.1984E+01  0.1736E+03
     64.035  0.3399E+01  0.1751E+03
     64.457  0.3142E+01  0.1766E+03
     64.879  0.3352E+01  0.1780E+03
     65.302  0.4173E+01  0.1798E+03
     65.724  0.3607E+01  0.1814E+03
     66.146  0.3176E+01  0.1827E+03
     66.568  0.4163E+01  0.1845E+03
     66.991  0.3010E+01  0.1859E+03
     67.413  0.1661E+01  0.1867E+03
     67.835  0.4230E+01  0.1886E+03
     68.258  0.3100E+01  0.1899E+03
     68.680  0.2424E+01  0.1910E+03
     69.102  0.3346E+01  0.1924E+03
     69.524  0.1668E+01  0.1932E+03
     69.947  0.3236E+01  0.1946E+03
     70.369  0.1531E+01  0.1953E+03
     70.791  0.6588E+00  0.1956E+03
     71.214  0.2393E+00  0.1957E+03
     71.636  0.5262E+00  0.1960E+03
     72.058  0.0000E+00  0.1960E+03
     72.480  0.0000E+00  0.1960E+03
     72.903  0.0000E+00  0.1960E+03
     73.325  0.0000E+00  0.1960E+03
     73.747  0.0000E+00  0.1960E+03
     74.170  0.0000E+00  0.1960E+03
     74.592  0.0000E+00  0.1960E+03
     75.014  0.0000E+00  0.1960E+03
     75.436  0.0000E+00  0.1960E+03
     75.859  0.0000E+00  0.1960E+03
     76.281  0.0000E+00  0.1960E+03
     76.703  0.0000E+00  0.1960E+03
     77.126  0.0000E+00  0.1960E+03
