       N       E                     dE             d eps       ncg     rms          rms(c)
DIA:   1    -0.179293763178E+01   -0.17929E+01    0.00000E+00     0   0.000E+00
DIA:   2    -0.179293763178E+01    0.13642E-11    0.00000E+00     0   0.000E+00
DIA:   3    -0.179293763179E+01   -0.45475E-11    0.00000E+00     0   0.000E+00
DIA:   4    -0.179293763180E+01   -0.86402E-11    0.00000E+00     0   0.000E+00
DIA:   5    -0.179293763179E+01    0.77307E-11    0.00000E+00     0   0.000E+00    0.111E-05
DIA:   6    -0.179293763176E+01    0.33197E-10    0.00000E+00     0   0.000E+00
   1 F= -.20169280E+01 E0= -.20169280E+01  d E =-.110906E-32  mag=    -0.0000    -0.0000    -0.0000
 imaginary and real dielectric function
