   1   1   0   0
  0.6156630E+02  0.4432200E-09  0.4432200E-09  0.4432200E-09  0.1000000E-15
  1.000000000000000E-004
  CAR 
 Og_FCC                                  
     16.01766511    -18.74418594  301     -3.97039924      1.00000000
    -18.744  0.0000E+00  0.0000E+00
    -18.628  0.0000E+00  0.0000E+00
    -18.512  0.0000E+00  0.0000E+00
    -18.397  0.0000E+00  0.0000E+00
    -18.281  0.0000E+00  0.0000E+00
    -18.165  0.0000E+00  0.0000E+00
    -18.049  0.0000E+00  0.0000E+00
    -17.933  0.0000E+00  0.0000E+00
    -17.817  0.0000E+00  0.0000E+00
    -17.701  0.0000E+00  0.0000E+00
    -17.585  0.0000E+00  0.0000E+00
    -17.470  0.0000E+00  0.0000E+00
    -17.354  0.0000E+00  0.0000E+00
    -17.238  0.0000E+00  0.0000E+00
    -17.122  0.0000E+00  0.9259E-02
    -17.006  0.0000E+00  0.5463E+00
    -16.890  0.1199E+01  0.2000E+01
    -16.774  0.0000E+00  0.2000E+01
    -16.658  0.0000E+00  0.2000E+01
    -16.543  0.0000E+00  0.2000E+01
    -16.427  0.0000E+00  0.2000E+01
    -16.311  0.0000E+00  0.2000E+01
    -16.195  0.0000E+00  0.2000E+01
    -16.079  0.0000E+00  0.2000E+01
    -15.963  0.0000E+00  0.2000E+01
    -15.847  0.0000E+00  0.2000E+01
    -15.731  0.0000E+00  0.2000E+01
    -15.616  0.0000E+00  0.2000E+01
    -15.500  0.0000E+00  0.2000E+01
    -15.384  0.0000E+00  0.2000E+01
    -15.268  0.0000E+00  0.2000E+01
    -15.152  0.0000E+00  0.2000E+01
    -15.036  0.0000E+00  0.2000E+01
    -14.920  0.0000E+00  0.2000E+01
    -14.805  0.0000E+00  0.2000E+01
    -14.689  0.0000E+00  0.2000E+01
    -14.573  0.0000E+00  0.2000E+01
    -14.457  0.0000E+00  0.2000E+01
    -14.341  0.0000E+00  0.2000E+01
    -14.225  0.0000E+00  0.2000E+01
    -14.109  0.0000E+00  0.2000E+01
    -13.993  0.0000E+00  0.2000E+01
    -13.878  0.0000E+00  0.2000E+01
    -13.762  0.0000E+00  0.2000E+01
    -13.646  0.0000E+00  0.2000E+01
    -13.530  0.0000E+00  0.2000E+01
    -13.414  0.0000E+00  0.2000E+01
    -13.298  0.0000E+00  0.2000E+01
    -13.182  0.0000E+00  0.2000E+01
    -13.066  0.0000E+00  0.2000E+01
    -12.951  0.0000E+00  0.2000E+01
    -12.835  0.0000E+00  0.2000E+01
    -12.719  0.0000E+00  0.2000E+01
    -12.603  0.0000E+00  0.2000E+01
    -12.487  0.0000E+00  0.2000E+01
    -12.371  0.0000E+00  0.2000E+01
    -12.255  0.0000E+00  0.2000E+01
    -12.139  0.0000E+00  0.2000E+01
    -12.024  0.0000E+00  0.2000E+01
    -11.908  0.0000E+00  0.2000E+01
    -11.792  0.0000E+00  0.2000E+01
    -11.676  0.0000E+00  0.2000E+01
    -11.560  0.0000E+00  0.2000E+01
    -11.444  0.0000E+00  0.2000E+01
    -11.328  0.0000E+00  0.2000E+01
    -11.212  0.0000E+00  0.2000E+01
    -11.097  0.0000E+00  0.2000E+01
    -10.981  0.0000E+00  0.2000E+01
    -10.865  0.0000E+00  0.2000E+01
    -10.749  0.0000E+00  0.2000E+01
    -10.633  0.0000E+00  0.2000E+01
    -10.517  0.0000E+00  0.2000E+01
    -10.401  0.0000E+00  0.2000E+01
    -10.285  0.0000E+00  0.2000E+01
    -10.170  0.0000E+00  0.2000E+01
    -10.054  0.0000E+00  0.2000E+01
     -9.938  0.0000E+00  0.2000E+01
     -9.822  0.0000E+00  0.2000E+01
     -9.706  0.0000E+00  0.2000E+01
     -9.590  0.0000E+00  0.2000E+01
     -9.474  0.0000E+00  0.2000E+01
     -9.358  0.0000E+00  0.2000E+01
     -9.243  0.0000E+00  0.2000E+01
     -9.127  0.0000E+00  0.2000E+01
     -9.011  0.0000E+00  0.2000E+01
     -8.895  0.0000E+00  0.2000E+01
     -8.779  0.0000E+00  0.2000E+01
     -8.663  0.0000E+00  0.2000E+01
     -8.547  0.0000E+00  0.2000E+01
     -8.432  0.0000E+00  0.2000E+01
     -8.316  0.0000E+00  0.2000E+01
     -8.200  0.0000E+00  0.2000E+01
     -8.084  0.0000E+00  0.2000E+01
     -7.968  0.0000E+00  0.2000E+01
     -7.852  0.0000E+00  0.2000E+01
     -7.736  0.0000E+00  0.2000E+01
     -7.620  0.0000E+00  0.2000E+01
     -7.505  0.0000E+00  0.2000E+01
     -7.389  0.0000E+00  0.2000E+01
     -7.273  0.0000E+00  0.2000E+01
     -7.157  0.0000E+00  0.2000E+01
     -7.041  0.0000E+00  0.2000E+01
     -6.925  0.0000E+00  0.2000E+01
     -6.809  0.0000E+00  0.2000E+01
     -6.693  0.0000E+00  0.2000E+01
     -6.578  0.0000E+00  0.2000E+01
     -6.462  0.0000E+00  0.2000E+01
     -6.346  0.0000E+00  0.2000E+01
     -6.230  0.0000E+00  0.2000E+01
     -6.114  0.1918E+01  0.2620E+01
     -5.998  0.0000E+00  0.3398E+01
     -5.882  0.0000E+00  0.3528E+01
     -5.766  0.0000E+00  0.3750E+01
     -5.651  0.0000E+00  0.3861E+01
     -5.535  0.0000E+00  0.3917E+01
     -5.419  0.0000E+00  0.3991E+01
     -5.303  0.0000E+00  0.4000E+01
     -5.187  0.0000E+00  0.4000E+01
     -5.071  0.2838E+01  0.4440E+01
     -4.955  0.1388E+01  0.4855E+01
     -4.839  0.0000E+00  0.5417E+01
     -4.724  0.0000E+00  0.5454E+01
     -4.608  0.1322E+01  0.6125E+01
     -4.492  0.9355E-01  0.6566E+01
     -4.376  0.0000E+00  0.7056E+01
     -4.260  0.0000E+00  0.7630E+01
     -4.144  0.0000E+00  0.7907E+01
     -4.028  0.0000E+00  0.7981E+01
     -3.912  0.0000E+00  0.8000E+01
     -3.797  0.0000E+00  0.8000E+01
     -3.681  0.0000E+00  0.8000E+01
     -3.565  0.0000E+00  0.8000E+01
     -3.449  0.0000E+00  0.8000E+01
     -3.333  0.0000E+00  0.8000E+01
     -3.217  0.0000E+00  0.8000E+01
     -3.101  0.0000E+00  0.8000E+01
     -2.985  0.0000E+00  0.8000E+01
     -2.870  0.0000E+00  0.8000E+01
     -2.754  0.0000E+00  0.8000E+01
     -2.638  0.0000E+00  0.8000E+01
     -2.522  0.0000E+00  0.8000E+01
     -2.406  0.0000E+00  0.8000E+01
     -2.290  0.0000E+00  0.8000E+01
     -2.174  0.0000E+00  0.8000E+01
     -2.058  0.0000E+00  0.8000E+01
     -1.943  0.0000E+00  0.8000E+01
     -1.827  0.0000E+00  0.8000E+01
     -1.711  0.0000E+00  0.8000E+01
     -1.595  0.0000E+00  0.8000E+01
     -1.479  0.0000E+00  0.8000E+01
     -1.363  0.0000E+00  0.8000E+01
     -1.247  0.0000E+00  0.8000E+01
     -1.132  0.0000E+00  0.8000E+01
     -1.016  0.0000E+00  0.8000E+01
     -0.900  0.0000E+00  0.8000E+01
     -0.784  0.0000E+00  0.8000E+01
     -0.668  0.0000E+00  0.8000E+01
     -0.552  0.0000E+00  0.8000E+01
     -0.436  0.0000E+00  0.8000E+01
     -0.320  0.0000E+00  0.8000E+01
     -0.205  0.0000E+00  0.8000E+01
     -0.089  0.0000E+00  0.8000E+01
      0.027  0.0000E+00  0.8000E+01
      0.143  0.0000E+00  0.8000E+01
      0.259  0.0000E+00  0.8000E+01
      0.375  0.0000E+00  0.8000E+01
      0.491  0.0000E+00  0.8000E+01
      0.607  0.0000E+00  0.8000E+01
      0.722  0.0000E+00  0.8000E+01
      0.838  0.0000E+00  0.8000E+01
      0.954  0.0000E+00  0.8000E+01
      1.070  0.0000E+00  0.8000E+01
      1.186  0.0000E+00  0.8000E+01
      1.302  0.0000E+00  0.8000E+01
      1.418  0.0000E+00  0.8000E+01
      1.534  0.0000E+00  0.8000E+01
      1.649  0.0000E+00  0.8000E+01
      1.765  0.0000E+00  0.8000E+01
      1.881  0.0000E+00  0.8000E+01
      1.997  0.0000E+00  0.8000E+01
      2.113  0.0000E+00  0.8000E+01
      2.229  0.0000E+00  0.8000E+01
      2.345  0.0000E+00  0.8000E+01
      2.461  0.0000E+00  0.8009E+01
      2.576  0.0000E+00  0.8009E+01
      2.692  0.0000E+00  0.8009E+01
      2.808  0.0000E+00  0.8009E+01
      2.924  0.0000E+00  0.8009E+01
      3.040  0.0000E+00  0.8009E+01
      3.156  0.0000E+00  0.8083E+01
      3.272  0.0000E+00  0.8083E+01
      3.388  0.0000E+00  0.8139E+01
      3.503  0.0000E+00  0.8139E+01
      3.619  0.0000E+00  0.8167E+01
      3.735  0.0000E+00  0.8167E+01
      3.851  0.0000E+00  0.8167E+01
      3.967  0.6216E-01  0.8248E+01
      4.083  0.0000E+00  0.8667E+01
      4.199  0.0000E+00  0.8889E+01
      4.315  0.0000E+00  0.9000E+01
      4.430  0.0000E+00  0.9000E+01
      4.546  0.0000E+00  0.9250E+01
      4.662  0.0000E+00  0.9583E+01
      4.778  0.0000E+00  0.9806E+01
      4.894  0.0000E+00  0.1008E+02
      5.010  0.0000E+00  0.1031E+02
      5.126  0.0000E+00  0.1031E+02
      5.241  0.0000E+00  0.1031E+02
      5.357  0.0000E+00  0.1042E+02
      5.473  0.0000E+00  0.1064E+02
      5.589  0.0000E+00  0.1086E+02
      5.705  0.0000E+00  0.1142E+02
      5.821  0.0000E+00  0.1164E+02
      5.937  0.0000E+00  0.1164E+02
      6.053  0.0000E+00  0.1203E+02
      6.168  0.0000E+00  0.1203E+02
      6.284  0.0000E+00  0.1203E+02
      6.400  0.0000E+00  0.1210E+02
      6.516  0.0000E+00  0.1262E+02
      6.632  0.0000E+00  0.1284E+02
      6.748  0.0000E+00  0.1303E+02
      6.864  0.0000E+00  0.1314E+02
      6.980  0.0000E+00  0.1344E+02
      7.095  0.0000E+00  0.1357E+02
      7.211  0.0000E+00  0.1374E+02
      7.327  0.0000E+00  0.1433E+02
      7.443  0.2661E-16  0.1456E+02
      7.559  0.0000E+00  0.1461E+02
      7.675  0.0000E+00  0.1472E+02
      7.791  0.7128E+00  0.1514E+02
      7.907  0.0000E+00  0.1539E+02
      8.022  0.0000E+00  0.1539E+02
      8.138  0.6860E+00  0.1558E+02
      8.254  0.0000E+00  0.1561E+02
      8.370  0.0000E+00  0.1583E+02
      8.486  0.0000E+00  0.1583E+02
      8.602  0.0000E+00  0.1586E+02
      8.718  0.0000E+00  0.1586E+02
      8.834  0.5088E-01  0.1602E+02
      8.949  0.0000E+00  0.1645E+02
      9.065  0.4795E+00  0.1651E+02
      9.181  0.0000E+00  0.1651E+02
      9.297  0.0000E+00  0.1703E+02
      9.413  0.0000E+00  0.1703E+02
      9.529  0.0000E+00  0.1703E+02
      9.645  0.0000E+00  0.1731E+02
      9.761  0.6554E-01  0.1743E+02
      9.876  0.1827E+01  0.1779E+02
      9.992  0.0000E+00  0.1791E+02
     10.108  0.0000E+00  0.1791E+02
     10.224  0.0000E+00  0.1835E+02
     10.340  0.0000E+00  0.1857E+02
     10.456  0.0000E+00  0.1870E+02
     10.572  0.0000E+00  0.1870E+02
     10.688  0.0000E+00  0.1870E+02
     10.803  0.0000E+00  0.1870E+02
     10.919  0.0000E+00  0.1870E+02
     11.035  0.1105E-08  0.1873E+02
     11.151  0.0000E+00  0.1928E+02
     11.267  0.0000E+00  0.1931E+02
     11.383  0.1918E+01  0.1975E+02
     11.499  0.0000E+00  0.2031E+02
     11.614  0.9589E+00  0.2055E+02
     11.730  0.7284E+00  0.2088E+02
     11.846  0.0000E+00  0.2116E+02
     11.962  0.2362E+00  0.2119E+02
     12.078  0.0000E+00  0.2161E+02
     12.194  0.0000E+00  0.2183E+02
     12.310  0.0000E+00  0.2206E+02
     12.426  0.0000E+00  0.2256E+02
     12.541  0.0000E+00  0.2267E+02
     12.657  0.0000E+00  0.2267E+02
     12.773  0.0000E+00  0.2267E+02
     12.889  0.0000E+00  0.2267E+02
     13.005  0.0000E+00  0.2293E+02
     13.121  0.0000E+00  0.2315E+02
     13.237  0.6002E+00  0.2322E+02
     13.353  0.0000E+00  0.2337E+02
     13.468  0.0000E+00  0.2337E+02
     13.584  0.9589E+00  0.2348E+02
     13.700  0.0000E+00  0.2348E+02
     13.816  0.8790E+00  0.2375E+02
     13.932  0.3995E-01  0.2381E+02
     14.048  0.0000E+00  0.2381E+02
     14.164  0.0000E+00  0.2381E+02
     14.280  0.0000E+00  0.2393E+02
     14.395  0.0000E+00  0.2393E+02
     14.511  0.0000E+00  0.2400E+02
     14.627  0.0000E+00  0.2400E+02
     14.743  0.0000E+00  0.2400E+02
     14.859  0.0000E+00  0.2400E+02
     14.975  0.0000E+00  0.2400E+02
     15.091  0.0000E+00  0.2400E+02
     15.207  0.0000E+00  0.2400E+02
     15.322  0.0000E+00  0.2400E+02
     15.438  0.0000E+00  0.2400E+02
     15.554  0.0000E+00  0.2400E+02
     15.670  0.0000E+00  0.2400E+02
     15.786  0.0000E+00  0.2400E+02
     15.902  0.0000E+00  0.2400E+02
     16.018  0.0000E+00  0.2400E+02
