   1   1   0   0
  0.2224118E+02  0.3156634E-09  0.3156634E-09  0.3156634E-09  0.1000000E-15
  1.000000000000000E-004
  CAR 
 Og_FCC                                  
    119.62699143    -42.88908152  301    -10.79215711      1.00000000
    -42.889  0.0000E+00  0.0000E+00
    -42.347  0.0000E+00  0.0000E+00
    -41.806  0.0000E+00  0.0000E+00
    -41.264  0.0000E+00  0.0000E+00
    -40.722  0.0000E+00  0.0000E+00
    -40.180  0.0000E+00  0.0000E+00
    -39.639  0.0000E+00  0.0000E+00
    -39.097  0.0000E+00  0.0000E+00
    -38.555  0.0000E+00  0.0000E+00
    -38.014  0.0000E+00  0.0000E+00
    -37.472  0.0000E+00  0.0000E+00
    -36.930  0.0000E+00  0.0000E+00
    -36.388  0.0000E+00  0.0000E+00
    -35.847  0.0000E+00  0.0000E+00
    -35.305  0.0000E+00  0.2000E+01
    -34.763  0.0000E+00  0.2000E+01
    -34.222  0.0000E+00  0.2000E+01
    -33.680  0.0000E+00  0.2000E+01
    -33.138  0.0000E+00  0.2000E+01
    -32.596  0.0000E+00  0.2000E+01
    -32.055  0.0000E+00  0.2000E+01
    -31.513  0.0000E+00  0.2000E+01
    -30.971  0.0000E+00  0.2000E+01
    -30.430  0.0000E+00  0.2000E+01
    -29.888  0.0000E+00  0.2000E+01
    -29.346  0.0000E+00  0.2000E+01
    -28.804  0.0000E+00  0.2000E+01
    -28.263  0.0000E+00  0.2000E+01
    -27.721  0.0000E+00  0.2000E+01
    -27.179  0.0000E+00  0.2000E+01
    -26.637  0.0000E+00  0.2000E+01
    -26.096  0.0000E+00  0.2000E+01
    -25.554  0.0000E+00  0.2000E+01
    -25.012  0.0000E+00  0.2000E+01
    -24.471  0.0000E+00  0.2000E+01
    -23.929  0.0000E+00  0.2000E+01
    -23.387  0.0000E+00  0.2000E+01
    -22.845  0.0000E+00  0.2000E+01
    -22.304  0.0000E+00  0.2000E+01
    -21.762  0.0000E+00  0.2000E+01
    -21.220  0.0000E+00  0.2000E+01
    -20.679  0.0000E+00  0.2000E+01
    -20.137  0.0000E+00  0.2000E+01
    -19.595  0.0000E+00  0.2000E+01
    -19.053  0.0000E+00  0.2000E+01
    -18.512  0.0000E+00  0.2000E+01
    -17.970  0.0000E+00  0.2000E+01
    -17.428  0.0000E+00  0.2000E+01
    -16.887  0.0000E+00  0.2000E+01
    -16.345  0.0000E+00  0.2000E+01
    -15.803  0.0000E+00  0.2000E+01
    -15.261  0.0000E+00  0.2000E+01
    -14.720  0.0000E+00  0.2000E+01
    -14.178  0.0000E+00  0.2000E+01
    -13.636  0.0000E+00  0.2000E+01
    -13.094  0.0000E+00  0.2000E+01
    -12.553  0.0000E+00  0.2000E+01
    -12.011  0.0000E+00  0.2000E+01
    -11.469  0.3085E+00  0.5436E+01
    -10.928  0.0000E+00  0.8000E+01
    -10.386  0.0000E+00  0.8000E+01
     -9.844  0.0000E+00  0.8000E+01
     -9.302  0.0000E+00  0.8000E+01
     -8.761  0.0000E+00  0.8000E+01
     -8.219  0.0000E+00  0.8000E+01
     -7.677  0.0000E+00  0.8000E+01
     -7.136  0.0000E+00  0.8000E+01
     -6.594  0.0000E+00  0.8000E+01
     -6.052  0.0000E+00  0.8000E+01
     -5.510  0.0000E+00  0.8000E+01
     -4.969  0.0000E+00  0.8000E+01
     -4.427  0.0000E+00  0.8000E+01
     -3.885  0.0000E+00  0.8000E+01
     -3.344  0.0000E+00  0.8000E+01
     -2.802  0.0000E+00  0.8000E+01
     -2.260  0.0000E+00  0.8000E+01
     -1.718  0.0000E+00  0.8000E+01
     -1.177  0.0000E+00  0.8000E+01
     -0.635  0.0000E+00  0.8000E+01
     -0.093  0.0000E+00  0.8000E+01
      0.449  0.0000E+00  0.8009E+01
      0.990  0.0000E+00  0.8009E+01
      1.532  0.0000E+00  0.8139E+01
      2.074  0.0000E+00  0.8139E+01
      2.615  0.0000E+00  0.8250E+01
      3.157  0.0000E+00  0.8472E+01
      3.699  0.0000E+00  0.8546E+01
      4.241  0.0000E+00  0.8602E+01
      4.782  0.0000E+00  0.8824E+01
      5.324  0.0000E+00  0.9046E+01
      5.866  0.0000E+00  0.9269E+01
      6.407  0.0000E+00  0.9565E+01
      6.949  0.0000E+00  0.9565E+01
      7.491  0.0000E+00  0.9926E+01
      8.033  0.0000E+00  0.1026E+02
      8.574  0.0000E+00  0.1051E+02
      9.116  0.0000E+00  0.1073E+02
      9.658  0.0000E+00  0.1095E+02
     10.200  0.0000E+00  0.1147E+02
     10.741  0.0000E+00  0.1147E+02
     11.283  0.0000E+00  0.1214E+02
     11.825  0.8312E-07  0.1258E+02
     12.366  0.0000E+00  0.1267E+02
     12.908  0.0000E+00  0.1283E+02
     13.450  0.0000E+00  0.1317E+02
     13.992  0.0000E+00  0.1339E+02
     14.533  0.0000E+00  0.1380E+02
     15.075  0.0000E+00  0.1402E+02
     15.617  0.5125E-01  0.1432E+02
     16.158  0.0000E+00  0.1469E+02
     16.700  0.0000E+00  0.1546E+02
     17.242  0.4070E+00  0.1587E+02
     17.784  0.0000E+00  0.1619E+02
     18.325  0.0000E+00  0.1656E+02
     18.867  0.0000E+00  0.1681E+02
     19.409  0.0000E+00  0.1714E+02
     19.950  0.0000E+00  0.1739E+02
     20.492  0.0000E+00  0.1781E+02
     21.034  0.0000E+00  0.1803E+02
     21.576  0.0000E+00  0.1819E+02
     22.117  0.0000E+00  0.1901E+02
     22.659  0.0000E+00  0.1923E+02
     23.201  0.0000E+00  0.1948E+02
     23.743  0.0000E+00  0.2037E+02
     24.284  0.0000E+00  0.2091E+02
     24.826  0.0000E+00  0.2122E+02
     25.368  0.0000E+00  0.2191E+02
     25.909  0.0000E+00  0.2197E+02
     26.451  0.0000E+00  0.2245E+02
     26.993  0.0000E+00  0.2290E+02
     27.535  0.0000E+00  0.2368E+02
     28.076  0.0000E+00  0.2455E+02
     28.618  0.4102E+00  0.2512E+02
     29.160  0.0000E+00  0.2545E+02
     29.701  0.0000E+00  0.2612E+02
     30.243  0.0000E+00  0.2697E+02
     30.785  0.0000E+00  0.2744E+02
     31.327  0.0000E+00  0.2756E+02
     31.868  0.0000E+00  0.2834E+02
     32.410  0.0000E+00  0.2884E+02
     32.952  0.0000E+00  0.2912E+02
     33.493  0.0000E+00  0.2949E+02
     34.035  0.0000E+00  0.2982E+02
     34.577  0.0000E+00  0.2985E+02
     35.119  0.0000E+00  0.3019E+02
     35.660  0.0000E+00  0.3054E+02
     36.202  0.0000E+00  0.3146E+02
     36.744  0.0000E+00  0.3194E+02
     37.286  0.0000E+00  0.3300E+02
     37.827  0.4097E+00  0.3367E+02
     38.369  0.0000E+00  0.3394E+02
     38.911  0.0000E+00  0.3441E+02
     39.452  0.0000E+00  0.3463E+02
     39.994  0.0000E+00  0.3530E+02
     40.536  0.0000E+00  0.3606E+02
     41.078  0.0000E+00  0.3654E+02
     41.619  0.0000E+00  0.3687E+02
     42.161  0.0000E+00  0.3787E+02
     42.703  0.0000E+00  0.3831E+02
     43.244  0.0000E+00  0.3876E+02
     43.786  0.0000E+00  0.3921E+02
     44.328  0.0000E+00  0.3960E+02
     44.870  0.0000E+00  0.4086E+02
     45.411  0.2797E-01  0.4106E+02
     45.953  0.0000E+00  0.4138E+02
     46.495  0.4102E+00  0.4275E+02
     47.036  0.0000E+00  0.4325E+02
     47.578  0.0000E+00  0.4384E+02
     48.120  0.0000E+00  0.4436E+02
     48.662  0.0000E+00  0.4440E+02
     49.203  0.0000E+00  0.4540E+02
     49.745  0.0000E+00  0.4592E+02
     50.287  0.0000E+00  0.4614E+02
     50.829  0.0000E+00  0.4694E+02
     51.370  0.0000E+00  0.4735E+02
     51.912  0.0000E+00  0.4828E+02
     52.454  0.0000E+00  0.4886E+02
     52.995  0.0000E+00  0.4953E+02
     53.537  0.0000E+00  0.5008E+02
     54.079  0.0000E+00  0.5115E+02
     54.621  0.4102E+00  0.5209E+02
     55.162  0.0000E+00  0.5276E+02
     55.704  0.0000E+00  0.5299E+02
     56.246  0.0000E+00  0.5355E+02
     56.787  0.0000E+00  0.5420E+02
     57.329  0.0000E+00  0.5520E+02
     57.871  0.0000E+00  0.5572E+02
     58.413  0.0000E+00  0.5696E+02
     58.954  0.0000E+00  0.5757E+02
     59.496  0.0000E+00  0.5761E+02
     60.038  0.0000E+00  0.5891E+02
     60.579  0.0000E+00  0.5957E+02
     61.121  0.0000E+00  0.6013E+02
     61.663  0.0000E+00  0.6034E+02
     62.205  0.0000E+00  0.6094E+02
     62.746  0.0000E+00  0.6204E+02
     63.288  0.0000E+00  0.6224E+02
     63.830  0.0000E+00  0.6311E+02
     64.372  0.0000E+00  0.6356E+02
     64.913  0.0000E+00  0.6422E+02
     65.455  0.0000E+00  0.6522E+02
     65.997  0.0000E+00  0.6576E+02
     66.538  0.6776E-01  0.6679E+02
     67.080  0.1065E-03  0.6736E+02
     67.622  0.0000E+00  0.6812E+02
     68.164  0.0000E+00  0.6864E+02
     68.705  0.0000E+00  0.6897E+02
     69.247  0.5110E-01  0.6996E+02
     69.789  0.0000E+00  0.7070E+02
     70.330  0.0000E+00  0.7146E+02
     70.872  0.0000E+00  0.7191E+02
     71.414  0.0000E+00  0.7220E+02
     71.956  0.0000E+00  0.7263E+02
     72.497  0.0000E+00  0.7341E+02
     73.039  0.0000E+00  0.7439E+02
     73.581  0.0000E+00  0.7556E+02
     74.122  0.0000E+00  0.7660E+02
     74.664  0.0000E+00  0.7712E+02
     75.206  0.0000E+00  0.7832E+02
     75.748  0.0000E+00  0.7923E+02
     76.289  0.0000E+00  0.7975E+02
     76.831  0.1363E+00  0.8097E+02
     77.373  0.0000E+00  0.8144E+02
     77.915  0.0000E+00  0.8233E+02
     78.456  0.0000E+00  0.8295E+02
     78.998  0.7350E-05  0.8340E+02
     79.540  0.0000E+00  0.8347E+02
     80.081  0.0000E+00  0.8417E+02
     80.623  0.0000E+00  0.8459E+02
     81.165  0.8099E-07  0.8589E+02
     81.707  0.0000E+00  0.8681E+02
     82.248  0.0000E+00  0.8746E+02
     82.790  0.0000E+00  0.8861E+02
     83.332  0.2393E+00  0.8950E+02
     83.873  0.0000E+00  0.8972E+02
     84.415  0.0000E+00  0.9050E+02
     84.957  0.0000E+00  0.9158E+02
     85.499  0.0000E+00  0.9233E+02
     86.040  0.0000E+00  0.9337E+02
     86.582  0.0000E+00  0.9481E+02
     87.124  0.0000E+00  0.9514E+02
     87.665  0.0000E+00  0.9625E+02
     88.207  0.0000E+00  0.9725E+02
     88.749  0.0000E+00  0.9814E+02
     89.291  0.0000E+00  0.9864E+02
     89.832  0.0000E+00  0.9953E+02
     90.374  0.0000E+00  0.1000E+03
     90.916  0.0000E+00  0.1011E+03
     91.458  0.0000E+00  0.1023E+03
     91.999  0.0000E+00  0.1026E+03
     92.541  0.0000E+00  0.1035E+03
     93.083  0.0000E+00  0.1043E+03
     93.624  0.0000E+00  0.1045E+03
     94.166  0.0000E+00  0.1047E+03
     94.708  0.0000E+00  0.1060E+03
     95.250  0.7365E-13  0.1067E+03
     95.791  0.0000E+00  0.1074E+03
     96.333  0.0000E+00  0.1084E+03
     96.875  0.0000E+00  0.1092E+03
     97.416  0.0000E+00  0.1097E+03
     97.958  0.0000E+00  0.1114E+03
     98.500  0.0000E+00  0.1128E+03
     99.042  0.0000E+00  0.1135E+03
     99.583  0.0000E+00  0.1147E+03
    100.125  0.0000E+00  0.1154E+03
    100.667  0.0000E+00  0.1166E+03
    101.209  0.0000E+00  0.1170E+03
    101.750  0.0000E+00  0.1182E+03
    102.292  0.0000E+00  0.1189E+03
    102.834  0.0000E+00  0.1193E+03
    103.375  0.1953E+00  0.1202E+03
    103.917  0.0000E+00  0.1206E+03
    104.459  0.0000E+00  0.1210E+03
    105.001  0.0000E+00  0.1218E+03
    105.542  0.0000E+00  0.1225E+03
    106.084  0.0000E+00  0.1235E+03
    106.626  0.0000E+00  0.1247E+03
    107.167  0.0000E+00  0.1256E+03
    107.709  0.0000E+00  0.1266E+03
    108.251  0.4102E+00  0.1273E+03
    108.793  0.0000E+00  0.1277E+03
    109.334  0.0000E+00  0.1277E+03
    109.876  0.0000E+00  0.1279E+03
    110.418  0.0000E+00  0.1279E+03
    110.959  0.0000E+00  0.1279E+03
    111.501  0.0000E+00  0.1279E+03
    112.043  0.0000E+00  0.1279E+03
    112.585  0.0000E+00  0.1280E+03
    113.126  0.0000E+00  0.1280E+03
    113.668  0.0000E+00  0.1280E+03
    114.210  0.0000E+00  0.1280E+03
    114.752  0.0000E+00  0.1280E+03
    115.293  0.0000E+00  0.1280E+03
    115.835  0.0000E+00  0.1280E+03
    116.377  0.0000E+00  0.1280E+03
    116.918  0.0000E+00  0.1280E+03
    117.460  0.0000E+00  0.1280E+03
    118.002  0.0000E+00  0.1280E+03
    118.544  0.0000E+00  0.1280E+03
    119.085  0.0000E+00  0.1280E+03
    119.627  0.0000E+00  0.1280E+03
