    1    1    1    1
  0.2224118E+02  0.3156634E-09  0.3156634E-09  0.3156634E-09  0.1000000E-15
  1.000000000000000E-004
  CAR 
 Og_FCC                                  
      8    216    128
 
  0.0000000E+00  0.0000000E+00  0.0000000E+00  0.4629630E-02
    1      -35.495260   1.000000
    2      -35.495260   1.000000
    3      -11.202946   1.000000
    4      -11.202946   1.000000
    5      -11.108215   1.000000
    6      -11.108215   1.000000
    7      -11.108214   1.000000
    8      -11.108214   1.000000
    9        0.388819   0.000000
   10        0.388819   0.000000
   11       18.451933   0.000000
   12       18.451933   0.000000
   13       18.451971   0.000000
   14       18.451971   0.000000
   15       18.452136   0.000000
   16       18.452136   0.000000
   17       20.334194   0.000000
   18       20.334194   0.000000
   19       22.931460   0.000000
   20       22.931460   0.000000
   21       22.941898   0.000000
   22       22.941898   0.000000
   23       22.941992   0.000000
   24       22.941992   0.000000
   25       24.756574   0.000000
   26       24.756574   0.000000
   27       24.756612   0.000000
   28       24.756612   0.000000
   29       25.622511   0.000000
   30       25.622511   0.000000
   31       31.381381   0.000000
   32       31.381381   0.000000
   33       31.409628   0.000000
   34       31.409628   0.000000
   35       31.409676   0.000000
   36       31.409676   0.000000
   37       43.672267   0.000000
   38       43.672268   0.000000
   39       52.407059   0.000000
   40       52.407059   0.000000
   41       52.407115   0.000000
   42       52.407115   0.000000
   43       52.408295   0.000000
   44       52.408295   0.000000
   45       54.351241   0.000000
   46       54.351241   0.000000
   47       54.351298   0.000000
   48       54.351298   0.000000
   49       55.369254   0.000000
   50       55.369254   0.000000
   51       55.369435   0.000000
   52       55.369435   0.000000
   53       55.369436   0.000000
   54       55.369436   0.000000
   55       62.381164   0.000000
   56       62.381164   0.000000
   57       62.396835   0.000000
   58       62.396835   0.000000
   59       62.397033   0.000000
   60       62.397033   0.000000
   61       69.251800   0.000000
   62       69.251800   0.000000
   63       71.183773   0.000000
   64       71.183774   0.000000
   65       71.183807   0.000000
   66       71.183808   0.000000
   67       73.880163   0.000000
   68       73.880163   0.000000
   69       73.880324   0.000000
   70       73.880324   0.000000
   71       73.881837   0.000000
   72       73.881837   0.000000
   73       76.955572   0.000000
   74       76.955572   0.000000
   75       76.955755   0.000000
   76       76.955755   0.000000
   77       76.955846   0.000000
   78       76.955846   0.000000
   79       77.978806   0.000000
   80       77.978807   0.000000
   81       78.337694   0.000000
   82       78.337694   0.000000
   83       78.337800   0.000000
   84       78.337800   0.000000
   85       78.337875   0.000000
   86       78.337875   0.000000
   87       78.366683   0.000000
   88       78.366683   0.000000
   89       78.366959   0.000000
   90       78.366959   0.000000
   91       78.367018   0.000000
   92       78.367018   0.000000
   93       79.924969   0.000000
   94       79.924969   0.000000
   95       79.925071   0.000000
   96       79.925071   0.000000
   97       79.925118   0.000000
   98       79.925118   0.000000
   99       80.310339   0.000000
  100       80.310339   0.000000
  101       80.310385   0.000000
  102       80.310385   0.000000
  103       85.147510   0.000000
  104       85.147510   0.000000
  105       85.151470   0.000000
  106       85.151471   0.000000
  107       85.151788   0.000000
  108       85.151788   0.000000
  109       85.783452   0.000000
  110       85.783452   0.000000
  111       85.783604   0.000000
  112       85.783605   0.000000
  113       85.783846   0.000000
  114       85.783847   0.000000
  115       85.979668   0.000000
  116       85.979668   0.000000
  117       86.155048   0.000000
  118       86.155048   0.000000
  119       96.699725   0.000000
  120       96.699725   0.000000
  121       96.751843   0.000000
  122       96.751843   0.000000
  123       96.751962   0.000000
  124       96.751962   0.000000
  125      112.129738   0.000000
  126      112.129738   0.000000
  127      112.129762   0.000000
  128      112.129762   0.000000
 
  0.1666667E+00 -0.1387779E-16 -0.6938894E-17  0.4629630E-02
    1      -35.501987   1.000000
    2      -35.501987   1.000000
    3      -11.692803   1.000000
    4      -11.692803   1.000000
    5      -11.434901   1.000000
    6      -11.434901   1.000000
    7      -11.378215   1.000000
    8      -11.378215   1.000000
    9        1.148890   0.000000
   10        1.148890   0.000000
   11       14.354243   0.000000
   12       14.354243   0.000000
   13       18.202841   0.000000
   14       18.202841   0.000000
   15       18.204462   0.000000
   16       18.204462   0.000000
   17       20.458133   0.000000
   18       20.458134   0.000000
   19       22.000559   0.000000
   20       22.000559   0.000000
   21       22.000686   0.000000
   22       22.000686   0.000000
   23       24.673514   0.000000
   24       24.673514   0.000000
   25       25.952079   0.000000
   26       25.952079   0.000000
   27       25.965879   0.000000
   28       25.965879   0.000000
   29       28.480145   0.000000
   30       28.480145   0.000000
   31       31.649360   0.000000
   32       31.649360   0.000000
   33       33.236691   0.000000
   34       33.236691   0.000000
   35       33.246301   0.000000
   36       33.246301   0.000000
   37       44.958003   0.000000
   38       44.958003   0.000000
   39       46.199472   0.000000
   40       46.199472   0.000000
   41       46.201619   0.000000
   42       46.201619   0.000000
   43       51.049038   0.000000
   44       51.049038   0.000000
   45       53.903502   0.000000
   46       53.903502   0.000000
   47       53.904809   0.000000
   48       53.904809   0.000000
   49       55.965224   0.000000
   50       55.965225   0.000000
   51       60.130308   0.000000
   52       60.130308   0.000000
   53       60.528337   0.000000
   54       60.528337   0.000000
   55       60.534123   0.000000
   56       60.534124   0.000000
   57       63.581212   0.000000
   58       63.581212   0.000000
   59       63.582224   0.000000
   60       63.582224   0.000000
   61       67.148971   0.000000
   62       67.148971   0.000000
   63       67.150794   0.000000
   64       67.150794   0.000000
   65       67.755033   0.000000
   66       67.755034   0.000000
   67       70.011938   0.000000
   68       70.011938   0.000000
   69       70.012598   0.000000
   70       70.012598   0.000000
   71       71.495699   0.000000
   72       71.495699   0.000000
   73       71.722387   0.000000
   74       71.722387   0.000000
   75       72.985437   0.000000
   76       72.985437   0.000000
   77       72.989644   0.000000
   78       72.989644   0.000000
   79       73.788118   0.000000
   80       73.788118   0.000000
   81       75.694111   0.000000
   82       75.694111   0.000000
   83       75.694611   0.000000
   84       75.694611   0.000000
   85       76.054649   0.000000
   86       76.054649   0.000000
   87       79.000646   0.000000
   88       79.000646   0.000000
   89       81.168283   0.000000
   90       81.168283   0.000000
   91       81.168827   0.000000
   92       81.168827   0.000000
   93       82.962309   0.000000
   94       82.962309   0.000000
   95       82.963692   0.000000
   96       82.963692   0.000000
   97       83.329249   0.000000
   98       83.329250   0.000000
   99       85.588384   0.000000
  100       85.588384   0.000000
  101       85.588596   0.000000
  102       85.588596   0.000000
  103       86.493561   0.000000
  104       86.493561   0.000000
  105       87.465066   0.000000
  106       87.465067   0.000000
  107       90.973152   0.000000
  108       90.973152   0.000000
  109       90.977618   0.000000
  110       90.977618   0.000000
  111       91.541030   0.000000
  112       91.541030   0.000000
  113       91.541485   0.000000
  114       91.541485   0.000000
  115       91.570441   0.000000
  116       91.570441   0.000000
  117       94.432836   0.000000
  118       94.432836   0.000000
  119       95.427756   0.000000
  120       95.427756   0.000000
  121       95.449364   0.000000
  122       95.449364   0.000000
  123      101.387305   0.000000
  124      101.387305   0.000000
  125      107.319123   0.000000
  126      107.319123   0.000000
  127      107.545511   0.000000
  128      107.545511   0.000000
 
  0.3333333E+00  0.0000000E+00 -0.1387779E-16  0.4629630E-02
    1      -35.437755   1.000000
    2      -35.437755   1.000000
    3      -11.458007   1.000000
    4      -11.458007   1.000000
    5      -11.256726   1.000000
    6      -11.256726   1.000000
    7      -11.202823   1.000000
    8      -11.202823   1.000000
    9        3.329762   0.000000
   10        3.329762   0.000000
   11       10.048677   0.000000
   12       10.048677   0.000000
   13       17.480066   0.000000
   14       17.480066   0.000000
   15       17.480822   0.000000
   16       17.480822   0.000000
   17       19.284798   0.000000
   18       19.284798   0.000000
   19       21.808116   0.000000
   20       21.808116   0.000000
   21       21.816087   0.000000
   22       21.816087   0.000000
   23       25.242249   0.000000
   24       25.242249   0.000000
   25       28.028999   0.000000
   26       28.028999   0.000000
   27       28.039452   0.000000
   28       28.039452   0.000000
   29       31.753708   0.000000
   30       31.753708   0.000000
   31       36.984117   0.000000
   32       36.984117   0.000000
   33       36.984400   0.000000
   34       36.984400   0.000000
   35       38.490898   0.000000
   36       38.490898   0.000000
   37       41.006004   0.000000
   38       41.006004   0.000000
   39       41.013463   0.000000
   40       41.013463   0.000000
   41       44.800757   0.000000
   42       44.800757   0.000000
   43       49.216857   0.000000
   44       49.216857   0.000000
   45       54.329325   0.000000
   46       54.329325   0.000000
   47       54.329792   0.000000
   48       54.329793   0.000000
   49       55.800800   0.000000
   50       55.800800   0.000000
   51       55.801482   0.000000
   52       55.801482   0.000000
   53       57.689002   0.000000
   54       57.689002   0.000000
   55       57.957875   0.000000
   56       57.957875   0.000000
   57       59.503883   0.000000
   58       59.503883   0.000000
   59       62.159113   0.000000
   60       62.159114   0.000000
   61       62.162475   0.000000
   62       62.162475   0.000000
   63       64.963606   0.000000
   64       64.963606   0.000000
   65       65.032823   0.000000
   66       65.032823   0.000000
   67       65.033247   0.000000
   68       65.033247   0.000000
   69       66.014129   0.000000
   70       66.014129   0.000000
   71       69.288177   0.000000
   72       69.288177   0.000000
   73       69.297483   0.000000
   74       69.297483   0.000000
   75       74.733331   0.000000
   76       74.733332   0.000000
   77       74.979716   0.000000
   78       74.979716   0.000000
   79       74.980071   0.000000
   80       74.980071   0.000000
   81       76.548677   0.000000
   82       76.548677   0.000000
   83       76.548980   0.000000
   84       76.548980   0.000000
   85       76.829131   0.000000
   86       76.829131   0.000000
   87       80.526343   0.000000
   88       80.526343   0.000000
   89       82.192481   0.000000
   90       82.192481   0.000000
   91       82.197258   0.000000
   92       82.197258   0.000000
   93       85.868719   0.000000
   94       85.868720   0.000000
   95       87.429199   0.000000
   96       87.429199   0.000000
   97       87.437648   0.000000
   98       87.437648   0.000000
   99       92.449845   0.000000
  100       92.449845   0.000000
  101       92.658994   0.000000
  102       92.658994   0.000000
  103       92.662321   0.000000
  104       92.662321   0.000000
  105       94.524117   0.000000
  106       94.524117   0.000000
  107       94.524402   0.000000
  108       94.524402   0.000000
  109       95.903735   0.000000
  110       95.903736   0.000000
  111       98.257640   0.000000
  112       98.257640   0.000000
  113       98.837756   0.000000
  114       98.837756   0.000000
  115       99.250860   0.000000
  116       99.250860   0.000000
  117       99.251024   0.000000
  118       99.251024   0.000000
  119      100.574946   0.000000
  120      100.574946   0.000000
  121      100.578815   0.000000
  122      100.578815   0.000000
  123      101.320531   0.000000
  124      101.320531   0.000000
  125      105.297944   0.000000
  126      105.297944   0.000000
  127      105.299270   0.000000
  128      105.299270   0.000000
 
  0.5000000E+00  0.0000000E+00 -0.5551115E-16  0.4629630E-02
    1      -35.440761   1.000000
    2      -35.440761   1.000000
    3      -11.711975   1.000000
    4      -11.711974   1.000000
    5      -11.552095   1.000000
    6      -11.552095   1.000000
    7      -11.499047   1.000000
    8      -11.499047   1.000000
    9        6.288269   0.000000
   10        6.288269   0.000000
   11        6.337862   0.000000
   12        6.337862   0.000000
   13       17.077997   0.000000
   14       17.077997   0.000000
   15       17.078166   0.000000
   16       17.078166   0.000000
   17       19.052137   0.000000
   18       19.052137   0.000000
   19       21.809645   0.000000
   20       21.809645   0.000000
   21       21.824385   0.000000
   22       21.824385   0.000000
   23       24.238195   0.000000
   24       24.238195   0.000000
   25       29.746069   0.000000
   26       29.746069   0.000000
   27       29.746212   0.000000
   28       29.746212   0.000000
   29       35.231056   0.000000
   30       35.231056   0.000000
   31       35.241287   0.000000
   32       35.241287   0.000000
   33       36.188583   0.000000
   34       36.188583   0.000000
   35       40.169775   0.000000
   36       40.169776   0.000000
   37       44.745296   0.000000
   38       44.745296   0.000000
   39       44.745342   0.000000
   40       44.745342   0.000000
   41       47.230290   0.000000
   42       47.230290   0.000000
   43       48.047555   0.000000
   44       48.047555   0.000000
   45       48.051079   0.000000
   46       48.051079   0.000000
   47       48.346467   0.000000
   48       48.346467   0.000000
   49       51.747262   0.000000
   50       51.747262   0.000000
   51       55.544171   0.000000
   52       55.544171   0.000000
   53       56.552112   0.000000
   54       56.552112   0.000000
   55       56.553916   0.000000
   56       56.553916   0.000000
   57       59.486750   0.000000
   58       59.486750   0.000000
   59       61.580139   0.000000
   60       61.580139   0.000000
   61       61.580495   0.000000
   62       61.580495   0.000000
   63       62.682221   0.000000
   64       62.682221   0.000000
   65       62.682453   0.000000
   66       62.682454   0.000000
   67       62.958501   0.000000
   68       62.958501   0.000000
   69       65.559117   0.000000
   70       65.559117   0.000000
   71       69.206142   0.000000
   72       69.206142   0.000000
   73       69.219957   0.000000
   74       69.219957   0.000000
   75       74.555423   0.000000
   76       74.555423   0.000000
   77       74.556342   0.000000
   78       74.556342   0.000000
   79       74.785761   0.000000
   80       74.785761   0.000000
   81       75.563605   0.000000
   82       75.563605   0.000000
   83       81.049930   0.000000
   84       81.049930   0.000000
   85       81.060478   0.000000
   86       81.060478   0.000000
   87       82.559932   0.000000
   88       82.559932   0.000000
   89       86.061101   0.000000
   90       86.061101   0.000000
   91       86.062761   0.000000
   92       86.062761   0.000000
   93       89.968773   0.000000
   94       89.968773   0.000000
   95       90.016262   0.000000
   96       90.016262   0.000000
   97       90.017148   0.000000
   98       90.017148   0.000000
   99       90.675337   0.000000
  100       90.675337   0.000000
  101       90.675419   0.000000
  102       90.675420   0.000000
  103       90.864002   0.000000
  104       90.864002   0.000000
  105       96.231136   0.000000
  106       96.231136   0.000000
  107       96.239886   0.000000
  108       96.239886   0.000000
  109       97.831566   0.000000
  110       97.831566   0.000000
  111      100.224926   0.000000
  112      100.224926   0.000000
  113      100.225080   0.000000
  114      100.225080   0.000000
  115      101.726849   0.000000
  116      101.726849   0.000000
  117      104.499513   0.000000
  118      104.499513   0.000000
  119      104.500317   0.000000
  120      104.500317   0.000000
  121      105.308742   0.000000
  122      105.308742   0.000000
  123      105.309131   0.000000
  124      105.309131   0.000000
  125      106.403897   0.000000
  126      106.403897   0.000000
  127      106.740334   0.000000
  128      106.740334   0.000000
 
 -0.3333333E+00  0.0000000E+00  0.1387779E-16  0.4629630E-02
    1      -35.437755   1.000000
    2      -35.437755   1.000000
    3      -11.458007   1.000000
    4      -11.458007   1.000000
    5      -11.256726   1.000000
    6      -11.256726   1.000000
    7      -11.202823   1.000000
    8      -11.202823   1.000000
    9        3.329762   0.000000
   10        3.329762   0.000000
   11       10.048677   0.000000
   12       10.048677   0.000000
   13       17.480066   0.000000
   14       17.480066   0.000000
   15       17.480822   0.000000
   16       17.480822   0.000000
   17       19.284798   0.000000
   18       19.284798   0.000000
   19       21.808116   0.000000
   20       21.808116   0.000000
   21       21.816087   0.000000
   22       21.816087   0.000000
   23       25.242249   0.000000
   24       25.242249   0.000000
   25       28.028999   0.000000
   26       28.028999   0.000000
   27       28.039452   0.000000
   28       28.039452   0.000000
   29       31.753708   0.000000
   30       31.753708   0.000000
   31       36.984117   0.000000
   32       36.984117   0.000000
   33       36.984400   0.000000
   34       36.984400   0.000000
   35       38.490898   0.000000
   36       38.490898   0.000000
   37       41.006004   0.000000
   38       41.006004   0.000000
   39       41.013463   0.000000
   40       41.013463   0.000000
   41       44.800757   0.000000
   42       44.800757   0.000000
   43       49.216857   0.000000
   44       49.216857   0.000000
   45       54.329325   0.000000
   46       54.329325   0.000000
   47       54.329792   0.000000
   48       54.329793   0.000000
   49       55.800800   0.000000
   50       55.800800   0.000000
   51       55.801482   0.000000
   52       55.801482   0.000000
   53       57.689002   0.000000
   54       57.689002   0.000000
   55       57.957875   0.000000
   56       57.957875   0.000000
   57       59.503883   0.000000
   58       59.503883   0.000000
   59       62.159113   0.000000
   60       62.159114   0.000000
   61       62.162475   0.000000
   62       62.162475   0.000000
   63       64.963606   0.000000
   64       64.963606   0.000000
   65       65.032823   0.000000
   66       65.032823   0.000000
   67       65.033247   0.000000
   68       65.033247   0.000000
   69       66.014129   0.000000
   70       66.014129   0.000000
   71       69.288177   0.000000
   72       69.288177   0.000000
   73       69.297483   0.000000
   74       69.297483   0.000000
   75       74.733331   0.000000
   76       74.733332   0.000000
   77       74.979716   0.000000
   78       74.979716   0.000000
   79       74.980071   0.000000
   80       74.980071   0.000000
   81       76.548677   0.000000
   82       76.548677   0.000000
   83       76.548980   0.000000
   84       76.548980   0.000000
   85       76.829131   0.000000
   86       76.829131   0.000000
   87       80.526343   0.000000
   88       80.526343   0.000000
   89       82.192481   0.000000
   90       82.192481   0.000000
   91       82.197258   0.000000
   92       82.197258   0.000000
   93       85.868719   0.000000
   94       85.868720   0.000000
   95       87.429199   0.000000
   96       87.429199   0.000000
   97       87.437648   0.000000
   98       87.437648   0.000000
   99       92.449845   0.000000
  100       92.449845   0.000000
  101       92.658994   0.000000
  102       92.658994   0.000000
  103       92.662321   0.000000
  104       92.662321   0.000000
  105       94.524117   0.000000
  106       94.524117   0.000000
  107       94.524402   0.000000
  108       94.524402   0.000000
  109       95.903735   0.000000
  110       95.903736   0.000000
  111       98.257640   0.000000
  112       98.257640   0.000000
  113       98.837756   0.000000
  114       98.837756   0.000000
  115       99.250860   0.000000
  116       99.250860   0.000000
  117       99.251024   0.000000
  118       99.251024   0.000000
  119      100.574946   0.000000
  120      100.574946   0.000000
  121      100.578815   0.000000
  122      100.578815   0.000000
  123      101.320531   0.000000
  124      101.320531   0.000000
  125      105.297944   0.000000
  126      105.297944   0.000000
  127      105.299270   0.000000
  128      105.299270   0.000000
 
 -0.1666667E+00  0.1387779E-16  0.6938894E-17  0.4629630E-02
    1      -35.501987   1.000000
    2      -35.501987   1.000000
    3      -11.692803   1.000000
    4      -11.692803   1.000000
    5      -11.434901   1.000000
    6      -11.434901   1.000000
    7      -11.378215   1.000000
    8      -11.378215   1.000000
    9        1.148890   0.000000
   10        1.148890   0.000000
   11       14.354243   0.000000
   12       14.354243   0.000000
   13       18.202841   0.000000
   14       18.202841   0.000000
   15       18.204462   0.000000
   16       18.204462   0.000000
   17       20.458133   0.000000
   18       20.458134   0.000000
   19       22.000559   0.000000
   20       22.000559   0.000000
   21       22.000686   0.000000
   22       22.000686   0.000000
   23       24.673514   0.000000
   24       24.673514   0.000000
   25       25.952079   0.000000
   26       25.952079   0.000000
   27       25.965879   0.000000
   28       25.965879   0.000000
   29       28.480145   0.000000
   30       28.480145   0.000000
   31       31.649360   0.000000
   32       31.649360   0.000000
   33       33.236691   0.000000
   34       33.236691   0.000000
   35       33.246301   0.000000
   36       33.246301   0.000000
   37       44.958003   0.000000
   38       44.958003   0.000000
   39       46.199472   0.000000
   40       46.199472   0.000000
   41       46.201619   0.000000
   42       46.201619   0.000000
   43       51.049038   0.000000
   44       51.049038   0.000000
   45       53.903502   0.000000
   46       53.903502   0.000000
   47       53.904809   0.000000
   48       53.904809   0.000000
   49       55.965224   0.000000
   50       55.965225   0.000000
   51       60.130308   0.000000
   52       60.130308   0.000000
   53       60.528337   0.000000
   54       60.528337   0.000000
   55       60.534123   0.000000
   56       60.534124   0.000000
   57       63.581212   0.000000
   58       63.581212   0.000000
   59       63.582224   0.000000
   60       63.582224   0.000000
   61       67.148971   0.000000
   62       67.148971   0.000000
   63       67.150794   0.000000
   64       67.150794   0.000000
   65       67.755033   0.000000
   66       67.755034   0.000000
   67       70.011938   0.000000
   68       70.011938   0.000000
   69       70.012598   0.000000
   70       70.012598   0.000000
   71       71.495699   0.000000
   72       71.495699   0.000000
   73       71.722387   0.000000
   74       71.722387   0.000000
   75       72.985437   0.000000
   76       72.985437   0.000000
   77       72.989644   0.000000
   78       72.989644   0.000000
   79       73.788118   0.000000
   80       73.788118   0.000000
   81       75.694111   0.000000
   82       75.694111   0.000000
   83       75.694611   0.000000
   84       75.694611   0.000000
   85       76.054649   0.000000
   86       76.054649   0.000000
   87       79.000646   0.000000
   88       79.000646   0.000000
   89       81.168283   0.000000
   90       81.168283   0.000000
   91       81.168827   0.000000
   92       81.168827   0.000000
   93       82.962309   0.000000
   94       82.962309   0.000000
   95       82.963692   0.000000
   96       82.963692   0.000000
   97       83.329249   0.000000
   98       83.329250   0.000000
   99       85.588384   0.000000
  100       85.588384   0.000000
  101       85.588596   0.000000
  102       85.588596   0.000000
  103       86.493561   0.000000
  104       86.493561   0.000000
  105       87.465066   0.000000
  106       87.465067   0.000000
  107       90.973152   0.000000
  108       90.973152   0.000000
  109       90.977618   0.000000
  110       90.977618   0.000000
  111       91.541030   0.000000
  112       91.541030   0.000000
  113       91.541485   0.000000
  114       91.541485   0.000000
  115       91.570441   0.000000
  116       91.570441   0.000000
  117       94.432836   0.000000
  118       94.432836   0.000000
  119       95.427756   0.000000
  120       95.427756   0.000000
  121       95.449364   0.000000
  122       95.449364   0.000000
  123      101.387305   0.000000
  124      101.387305   0.000000
  125      107.319123   0.000000
  126      107.319123   0.000000
  127      107.545511   0.000000
  128      107.545511   0.000000
 
  0.0000000E+00  0.1666667E+00  0.6938894E-17  0.4629630E-02
    1      -35.501987   1.000000
    2      -35.501987   1.000000
    3      -11.692803   1.000000
    4      -11.692803   1.000000
    5      -11.434902   1.000000
    6      -11.434902   1.000000
    7      -11.378216   1.000000
    8      -11.378216   1.000000
    9        1.148891   0.000000
   10        1.148891   0.000000
   11       14.354250   0.000000
   12       14.354250   0.000000
   13       18.202834   0.000000
   14       18.202834   0.000000
   15       18.204455   0.000000
   16       18.204455   0.000000
   17       20.458207   0.000000
   18       20.458207   0.000000
   19       22.000519   0.000000
   20       22.000519   0.000000
   21       22.000633   0.000000
   22       22.000633   0.000000
   23       24.673540   0.000000
   24       24.673540   0.000000
   25       25.952069   0.000000
   26       25.952069   0.000000
   27       25.965869   0.000000
   28       25.965869   0.000000
   29       28.480147   0.000000
   30       28.480147   0.000000
   31       31.649404   0.000000
   32       31.649405   0.000000
   33       33.236678   0.000000
   34       33.236678   0.000000
   35       33.246287   0.000000
   36       33.246287   0.000000
   37       44.958006   0.000000
   38       44.958007   0.000000
   39       46.199444   0.000000
   40       46.199444   0.000000
   41       46.201589   0.000000
   42       46.201589   0.000000
   43       51.049138   0.000000
   44       51.049138   0.000000
   45       53.903507   0.000000
   46       53.903507   0.000000
   47       53.904814   0.000000
   48       53.904814   0.000000
   49       55.965207   0.000000
   50       55.965207   0.000000
   51       60.130312   0.000000
   52       60.130313   0.000000
   53       60.528335   0.000000
   54       60.528335   0.000000
   55       60.534120   0.000000
   56       60.534120   0.000000
   57       63.581167   0.000000
   58       63.581167   0.000000
   59       63.582178   0.000000
   60       63.582178   0.000000
   61       67.148979   0.000000
   62       67.148979   0.000000
   63       67.150802   0.000000
   64       67.150802   0.000000
   65       67.755048   0.000000
   66       67.755048   0.000000
   67       70.011918   0.000000
   68       70.011918   0.000000
   69       70.012563   0.000000
   70       70.012563   0.000000
   71       71.495667   0.000000
   72       71.495667   0.000000
   73       71.722428   0.000000
   74       71.722428   0.000000
   75       72.985467   0.000000
   76       72.985467   0.000000
   77       72.989674   0.000000
   78       72.989674   0.000000
   79       73.788146   0.000000
   80       73.788146   0.000000
   81       75.694104   0.000000
   82       75.694104   0.000000
   83       75.694602   0.000000
   84       75.694602   0.000000
   85       76.054655   0.000000
   86       76.054655   0.000000
   87       79.000722   0.000000
   88       79.000722   0.000000
   89       81.168289   0.000000
   90       81.168289   0.000000
   91       81.168830   0.000000
   92       81.168830   0.000000
   93       82.962309   0.000000
   94       82.962309   0.000000
   95       82.963699   0.000000
   96       82.963699   0.000000
   97       83.329195   0.000000
   98       83.329195   0.000000
   99       85.588377   0.000000
  100       85.588377   0.000000
  101       85.588570   0.000000
  102       85.588570   0.000000
  103       86.493532   0.000000
  104       86.493532   0.000000
  105       87.465069   0.000000
  106       87.465069   0.000000
  107       90.973144   0.000000
  108       90.973144   0.000000
  109       90.977612   0.000000
  110       90.977612   0.000000
  111       91.541022   0.000000
  112       91.541022   0.000000
  113       91.541477   0.000000
  114       91.541477   0.000000
  115       91.570464   0.000000
  116       91.570465   0.000000
  117       94.432818   0.000000
  118       94.432819   0.000000
  119       95.427760   0.000000
  120       95.427760   0.000000
  121       95.449368   0.000000