<?xml version="1.0" encoding="ISO-8859-1"?>
<modeling>
 <generator>
  <i name="program" type="string">vasp </i>
  <i name="version" type="string">5.4.4.18Apr17-6-g9f103f2a35  </i>
  <i name="subversion" type="string">(build Nov 03 2018 10:20:46) complex            parallel </i>
  <i name="platform" type="string">LinuxIFC </i>
  <i name="date" type="string">2018 12 04 </i>
  <i name="time" type="string">12:05:00 </i>
 </generator>
 <incar>
  <i type="string" name="SYSTEM">   Og_FCC</i>
  <i type="string" name="PREC">accurate</i>
  <i type="string" name="ALGO">   EXACT</i>
  <i type="logical" name="ADDGRID"> T  </i>
  <i type="logical" name="LSORBIT"> T  </i>
  <i type="int" name="ISPIN">     1</i>
  <i type="int" name="MAXMIX">    50</i>
  <i type="int" name="NELM">    50</i>
  <i type="int" name="NELMDL">    -5</i>
  <i type="int" name="NELMIN">     2</i>
  <i type="int" name="IBRION">    -1</i>
  <i type="int" name="NFREE">     5</i>
  <i name="EDIFF">      0.00000001</i>
  <i name="EDIFFG">      0.00001000</i>
  <i type="int" name="NSW">     1</i>
  <i type="int" name="ISIF">     3</i>
  <i type="int" name="ISYM">     0</i>
  <i name="SYMPREC">      0.00000010</i>
  <i name="ENCUT">    300.00000000</i>
  <i type="int" name="NBANDS">   128</i>
  <i name="POTIM">      0.10000000</i>
  <i type="logical" name="LREAL"> F  </i>
  <i type="int" name="ISMEAR">     0</i>
  <i name="SIGMA">      0.00100000</i>
  <i type="int" name="NWRITE">     2</i>
  <i type="logical" name="LWAVE"> T  </i>
  <i type="logical" name="LCHARG"> F  </i>
  <i type="logical" name="LVTOT"> F  </i>
  <i type="logical" name="LOPTICS"> T  </i>
  <i type="logical" name="GGA_COMPAT"> F  </i>
  <v type="int" name="KPOINT_BSE">    -1     0     0     0</v>
  <i type="int" name="NELM">    50</i>
  <i type="string" name="GGA"> PE</i>
 </incar>
 <structure name="primitive_cell" >
  <crystal>
   <varray name="basis" >
    <v>       3.15663441       0.00000000       0.00000000 </v>
    <v>       1.57831721       2.73372559       0.00000000 </v>
    <v>       1.57831721       0.91124186       2.57738121 </v>
   </varray>
   <i name="volume">     22.24118194 </i>
   <varray name="rec_basis" >
    <v>       0.31679310      -0.18290058      -0.12933024 </v>
    <v>       0.00000000       0.36580116      -0.12933024 </v>
    <v>       0.00000000       0.00000000       0.38799072 </v>
   </varray>
  </crystal>
  <varray name="positions" >
   <v>       0.00000000       0.00000000       0.00000000 </v>
  </varray>
 </structure>
 <varray name="primitive_index" >
  <v type="int" >        1 </v>
 </varray>
 <kpoints>
  <generation param="Gamma">
   <v type="int" name="divisions">       6        6        6 </v>
   <v name="usershift">      0.00000000       0.00000000       0.00000000 </v>
   <v name="genvec1">      0.16666667       0.00000000       0.00000000 </v>
   <v name="genvec2">      0.00000000       0.16666667      -0.00000000 </v>
   <v name="genvec3">      0.00000000       0.00000000       0.16666667 </v>
   <v name="shift">      0.00000000       0.00000000       0.00000000 </v>
  </generation>
  <varray name="kpointlist" >
   <v>       0.00000000       0.00000000       0.00000000 </v>
   <v>       0.16666667      -0.00000000      -0.00000000 </v>
   <v>       0.33333333       0.00000000      -0.00000000 </v>
   <v>       0.50000000       0.00000000      -0.00000000 </v>
   <v>      -0.33333333       0.00000000       0.00000000 </v>
   <v>      -0.16666667       0.00000000       0.00000000 </v>
   <v>       0.00000000       0.16666667       0.00000000 </v>
   <v>       0.16666667       0.16666667      -0.00000000 </v>
   <v>       0.33333333       0.16666667      -0.00000000 </v>
   <v>       0.50000000       0.16666667       0.00000000 </v>
   <v>      -0.33333333       0.16666667       0.00000000 </v>
   <v>      -0.16666667       0.16666667       0.00000000 </v>
   <v>       0.00000000       0.33333333      -0.00000000 </v>
   <v>       0.16666667       0.33333333       0.00000000 </v>
   <v>       0.33333333       0.33333333       0.00000000 </v>
   <v>       0.50000000       0.33333333       0.00000000 </v>
   <v>      -0.33333333       0.33333333       0.00000000 </v>
   <v>      -0.16666667       0.33333333      -0.00000000 </v>
   <v>       0.00000000       0.50000000      -0.00000000 </v>
   <v>       0.16666667       0.50000000      -0.00000000 </v>
   <v>       0.33333333       0.50000000      -0.00000000 </v>
   <v>       0.50000000       0.50000000      -0.00000000 </v>
   <v>      -0.33333333       0.50000000      -0.00000000 </v>
   <v>      -0.16666667       0.50000000       0.00000000 </v>
   <v>       0.00000000      -0.33333333       0.00000000 </v>
   <v>       0.16666667      -0.33333333       0.00000000 </v>
   <v>       0.33333333      -0.33333333      -0.00000000 </v>
   <v>       0.50000000      -0.33333333      -0.00000000 </v>
   <v>      -0.33333333      -0.33333333       0.00000000 </v>
   <v>      -0.16666667      -0.33333333      -0.00000000 </v>
   <v>       0.00000000      -0.16666667      -0.00000000 </v>
   <v>       0.16666667      -0.16666667      -0.00000000 </v>
   <v>       0.33333333      -0.16666667      -0.00000000 </v>
   <v>       0.50000000      -0.16666667       0.00000000 </v>
   <v>      -0.33333333      -0.16666667       0.00000000 </v>
   <v>      -0.16666667      -0.16666667       0.00000000 </v>
   <v>       0.00000000       0.00000000       0.16666667 </v>
   <v>       0.16666667      -0.00000000       0.16666667 </v>
   <v>       0.33333333       0.00000000       0.16666667 </v>
   <v>       0.50000000       0.00000000       0.16666667 </v>
   <v>      -0.33333333       0.00000000       0.16666667 </v>
   <v>      -0.16666667       0.00000000       0.16666667 </v>
   <v>       0.00000000       0.16666667       0.16666667 </v>
   <v>       0.16666667       0.16666667       0.16666667 </v>
   <v>       0.33333333       0.16666667       0.16666667 </v>
   <v>       0.50000000       0.16666667       0.16666667 </v>
   <v>      -0.33333333       0.16666667       0.16666667 </v>
   <v>      -0.16666667       0.16666667       0.16666667 </v>
   <v>       0.00000000       0.33333333       0.16666667 </v>
   <v>       0.16666667       0.33333333       0.16666667 </v>
   <v>       0.33333333       0.33333333       0.16666667 </v>
   <v>       0.50000000       0.33333333       0.16666667 </v>
   <v>      -0.33333333       0.33333333       0.16666667 </v>
   <v>      -0.16666667       0.33333333       0.16666667 </v>
   <v>       0.00000000       0.50000000       0.16666667 </v>
   <v>       0.16666667       0.50000000       0.16666667 </v>
   <v>       0.33333333       0.50000000       0.16666667 </v>
   <v>       0.50000000       0.50000000       0.16666667 </v>
   <v>      -0.33333333       0.50000000       0.16666667 </v>
   <v>      -0.16666667       0.50000000       0.16666667 </v>
   <v>       0.00000000      -0.33333333       0.16666667 </v>
   <v>       0.16666667      -0.33333333       0.16666667 </v>
   <v>       0.33333333      -0.33333333       0.16666667 </v>
   <v>       0.50000000      -0.33333333       0.16666667 </v>
   <v>      -0.33333333      -0.33333333       0.16666667 </v>
   <v>      -0.16666667      -0.33333333       0.16666667 </v>
   <v>       0.00000000      -0.16666667       0.16666667 </v>
   <v>       0.16666667      -0.16666667       0.16666667 </v>
   <v>       0.33333333      -0.16666667       0.16666667 </v>
   <v>       0.50000000      -0.16666667       0.16666667 </v>
   <v>      -0.33333333      -0.16666667       0.16666667 </v>
   <v>      -0.16666667      -0.16666667       0.16666667 </v>
   <v>       0.00000000       0.00000000       0.33333333 </v>
   <v>       0.16666667      -0.00000000       0.33333333 </v>
   <v>       0.33333333       0.00000000       0.33333333 </v>
   <v>       0.50000000       0.00000000       0.33333333 </v>
   <v>      -0.33333333       0.00000000       0.33333333 </v>
   <v>      -0.16666667       0.00000000       0.33333333 </v>
   <v>       0.00000000       0.16666667       0.33333333 </v>
   <v>       0.16666667       0.16666667       0.33333333 </v>
   <v>       0.33333333       0.16666667       0.33333333 </v>
   <v>       0.50000000       0.16666667       0.33333333 </v>
   <v>      -0.33333333       0.16666667       0.33333333 </v>
   <v>      -0.16666667       0.16666667       0.33333333 </v>
   <v>       0.00000000       0.33333333       0.33333333 </v>
   <v>       0.16666667       0.33333333       0.33333333 </v>
   <v>       0.33333333       0.33333333       0.33333333 </v>
   <v>       0.50000000       0.33333333       0.33333333 </v>
   <v>      -0.33333333       0.33333333       0.33333333 </v>
   <v>      -0.16666667       0.33333333       0.33333333 </v>
   <v>       0.00000000       0.50000000       0.33333333 </v>
   <v>       0.16666667       0.50000000       0.33333333 </v>
   <v>       0.33333333       0.50000000       0.33333333 </v>
   <v>       0.50000000       0.50000000       0.33333333 </v>
   <v>      -0.33333333       0.50000000       0.33333333 </v>
   <v>      -0.16666667       0.50000000       0.33333333 </v>
   <v>       0.00000000      -0.33333333       0.33333333 </v>
   <v>       0.16666667      -0.33333333       0.33333333 </v>
   <v>       0.33333333      -0.33333333       0.33333333 </v>
   <v>       0.50000000      -0.33333333       0.33333333 </v>
   <v>      -0.33333333      -0.33333333       0.33333333 </v>
   <v>      -0.16666667      -0.33333333       0.33333333 </v>
   <v>       0.00000000      -0.16666667       0.33333333 </v>
   <v>       0.16666667      -0.16666667       0.33333333 </v>
   <v>       0.33333333      -0.16666667       0.33333333 </v>
   <v>       0.50000000      -0.16666667       0.33333333 </v>
   <v>      -0.33333333      -0.16666667       0.33333333 </v>
   <v>      -0.16666667      -0.16666667       0.33333333 </v>
   <v>       0.00000000       0.00000000       0.50000000 </v>
   <v>       0.16666667      -0.00000000       0.50000000 </v>
   <v>       0.33333333       0.00000000       0.50000000 </v>
   <v>       0.50000000       0.00000000       0.50000000 </v>
   <v>      -0.33333333       0.00000000       0.50000000 </v>
   <v>      -0.16666667       0.00000000       0.50000000 </v>
   <v>       0.00000000       0.16666667       0.50000000 </v>
   <v>       0.16666667       0.16666667       0.50000000 </v>
   <v>       0.33333333       0.16666667       0.50000000 </v>
   <v>       0.50000000       0.16666667       0.50000000 </v>
   <v>      -0.33333333       0.16666667       0.50000000 </v>
   <v>      -0.16666667       0.16666667       0.50000000 </v>
   <v>       0.00000000       0.33333333       0.50000000 </v>
   <v>       0.16666667       0.33333333       0.50000000 </v>
   <v>       0.33333333       0.33333333       0.50000000 </v>
   <v>       0.50000000       0.33333333       0.50000000 </v>
   <v>      -0.33333333       0.33333333       0.50000000 </v>
   <v>      -0.16666667       0.33333333       0.50000000 </v>
   <v>       0.00000000       0.50000000       0.50000000 </v>
   <v>       0.16666667       0.50000000       0.50000000 </v>
   <v>       0.33333333       0.50000000       0.50000000 </v>
   <v>       0.50000000       0.50000000       0.50000000 </v>
   <v>      -0.33333333       0.50000000       0.50000000 </v>
   <v>      -0.16666667       0.50000000       0.50000000 </v>
   <v>       0.00000000      -0.33333333       0.50000000 </v>
   <v>       0.16666667      -0.33333333       0.50000000 </v>
   <v>       0.33333333      -0.33333333       0.50000000 </v>
   <v>       0.50000000      -0.33333333       0.50000000 </v>
   <v>      -0.33333333      -0.33333333       0.50000000 </v>
   <v>      -0.16666667      -0.33333333       0.50000000 </v>
   <v>       0.00000000      -0.16666667       0.50000000 </v>
   <v>       0.16666667      -0.16666667       0.50000000 </v>
   <v>       0.33333333      -0.16666667       0.50000000 </v>
   <v>       0.50000000      -0.16666667       0.50000000 </v>
   <v>      -0.33333333      -0.16666667       0.50000000 </v>
   <v>      -0.16666667      -0.16666667       0.50000000 </v>
   <v>       0.00000000       0.00000000      -0.33333333 </v>
   <v>       0.16666667      -0.00000000      -0.33333333 </v>
   <v>       0.33333333       0.00000000      -0.33333333 </v>
   <v>       0.50000000       0.00000000      -0.33333333 </v>
   <v>      -0.33333333       0.00000000      -0.33333333 </v>
   <v>      -0.16666667       0.00000000      -0.33333333 </v>
   <v>       0.00000000       0.16666667      -0.33333333 </v>
   <v>       0.16666667       0.16666667      -0.33333333 </v>
   <v>       0.33333333       0.16666667      -0.33333333 </v>
   <v>       0.50000000       0.16666667      -0.33333333 </v>
   <v>      -0.33333333       0.16666667      -0.33333333 </v>
   <v>      -0.16666667       0.16666667      -0.33333333 </v>
   <v>       0.00000000       0.33333333      -0.33333333 </v>
   <v>       0.16666667       0.33333333      -0.33333333 </v>
   <v>       0.33333333       0.33333333      -0.33333333 </v>
   <v>       0.50000000       0.33333333      -0.33333333 </v>
   <v>      -0.33333333       0.33333333      -0.33333333 </v>
   <v>      -0.16666667       0.33333333      -0.33333333 </v>
   <v>       0.00000000       0.50000000      -0.33333333 </v>
   <v>       0.16666667       0.50000000      -0.33333333 </v>
   <v>       0.33333333       0.50000000      -0.33333333 </v>
   <v>       0.50000000       0.50000000      -0.33333333 </v>
   <v>      -0.33333333       0.50000000      -0.33333333 </v>
   <v>      -0.16666667       0.50000000      -0.33333333 </v>
   <v>       0.00000000      -0.33333333      -0.33333333 </v>
   <v>       0.16666667      -0.33333333      -0.33333333 </v>
   <v>       0.33333333      -0.33333333      -0.33333333 </v>
   <v>       0.50000000      -0.33333333      -0.33333333 </v>
   <v>      -0.33333333      -0.33333333      -0.33333333 </v>
   <v>      -0.16666667      -0.33333333      -0.33333333 </v>
   <v>       0.00000000      -0.16666667      -0.33333333 </v>
   <v>       0.16666667      -0.16666667      -0.33333333 </v>
   <v>       0.33333333      -0.16666667      -0.33333333 </v>
   <v>       0.50000000      -0.16666667      -0.33333333 </v>
   <v>      -0.33333333      -0.16666667      -0.33333333 </v>
   <v>      -0.16666667      -0.16666667      -0.33333333 </v>
   <v>       0.00000000       0.00000000      -0.16666667 </v>
   <v>       0.16666667      -0.00000000      -0.16666667 </v>
   <v>       0.33333333       0.00000000      -0.16666667 </v>
   <v>       0.50000000       0.00000000      -0.16666667 </v>
   <v>      -0.33333333       0.00000000      -0.16666667 </v>
   <v>      -0.16666667       0.00000000      -0.16666667 </v>
   <v>       0.00000000       0.16666667      -0.16666667 </v>
   <v>       0.16666667       0.16666667      -0.16666667 </v>
   <v>       0.33333333       0.16666667      -0.16666667 </v>
   <v>       0.50000000       0.16666667      -0.16666667 </v>
   <v>      -0.33333333       0.16666667      -0.16666667 </v>
   <v>      -0.16666667       0.16666667      -0.16666667 </v>
   <v>       0.00000000       0.33333333      -0.16666667 </v>
   <v>       0.16666667       0.33333333      -0.16666667 </v>
   <v>       0.33333333       0.33333333      -0.16666667 </v>
   <v>       0.50000000       0.33333333      -0.16666667 </v>
   <v>      -0.33333333       0.33333333      -0.16666667 </v>
   <v>      -0.16666667       0.33333333      -0.16666667 </v>
   <v>       0.00000000       0.50000000      -0.16666667 </v>
   <v>       0.16666667       0.50000000      -0.16666667 </v>
   <v>       0.33333333       0.50000000      -0.16666667 </v>
   <v>       0.50000000       0.50000000      -0.16666667 </v>
   <v>      -0.33333333       0.50000000      -0.16666667 </v>
   <v>      -0.16666667       0.50000000      -0.16666667 </v>
   <v>       0.00000000      -0.33333333      -0.16666667 </v>
   <v>       0.16666667      -0.33333333      -0.16666667 </v>
   <v>       0.33333333      -0.33333333      -0.16666667 </v>
   <v>       0.50000000      -0.33333333      -0.16666667 </v>
   <v>      -0.33333333      -0.33333333      -0.16666667 </v>
   <v>      -0.16666667      -0.33333333      -0.16666667 </v>
   <v>       0.00000000      -0.16666667      -0.16666667 </v>
   <v>       0.16666667      -0.16666667      -0.16666667 </v>
   <v>       0.33333333      -0.16666667      -0.16666667 </v>
   <v>       0.50000000      -0.16666667      -0.16666667 </v>
   <v>      -0.33333333      -0.16666667      -0.16666667 </v>
   <v>      -0.16666667      -0.16666667      -0.16666667 </v>
  </varray>
  <varray name="weights" >
   <v>       0.00462963 </v>
   <v>       0.00462963 </v>
   <v>       0.00462963 </v>
   <v>       0.00462963 </v>
   <v>       0.00462963 </v>
   <v>       0.00462963 </v>
   <v>       0.00462963 </v>
   <v>       0.00462963 </v>
   <v>       0.00462963 </v>
   <v>       0.00462963 </v>
   <v>       0.00462963 </v>
   <v>       0.00462963 </v>
   <v>       0.00462963 </v>
   <v>       0.00462963 </v>
   <v>       0.00462963 </v>
   <v>       0.00462963 </v>
   <v>       0.00462963 </v>
   <v>       0.00462963 </v>
   <v>       0.00462963 </v>
   <v>       0.00462963 </v>
   <v>       0.00462963 </v>
   <v>       0.00462963 </v>
   <v>       0.00462963 </v>
   <v>       0.00462963 </v>
   <v>       0.00462963 </v>
   <v>       0.00462963 </v>
   <v>       0.00462963 </v>
   <v>       0.00462963 </v>
   <v>       0.00462963 </v>
   <v>       0.00462963 </v>
   <v>       0.00462963 </v>
   <v>       0.00462963 </v>
   <v>       0.00462963 </v>
   <v>       0.00462963 </v>
   <v>       0.00462963 </v>
   <v>       0.00462963 </v>
   <v>       0.00462963 </v>
   <v>       0.00462963 </v>
   <v>       0.00462963 </v>
   <v>       0.00462963 </v>
   <v>       0.00462963 </v>
   <v>       0.00462963 </v>
   <v>       0.00462963 </v>
   <v>       0.00462963 </v>
   <v>       0.00462963 </v>
   <v>       0.00462963 </v>
   <v>       0.00462963 </v>
   <v>       0.00462963 </v>
   <v>       0.00462963 </v>
   <v>       0.00462963 </v>
   <v>       0.00462963 </v>
   <v>       0.00462963 </v>
   <v>       0.00462963 </v>
   <v>       0.00462963 </v>
   <v>       0.00462963 </v>
   <v>       0.00462963 </v>
   <v>       0.00462963 </v>
   <v>       0.00462963 </v>
   <v>       0.00462963 </v>
   <v>       0.00462963 </v>
   <v>       0.00462963 </v>
   <v>       0.00462963 </v>
   <v>       0.00462963 </v>
   <v>       0.00462963 </v>
   <v>       0.00462963 </v>
   <v>       0.00462963 </v>
   <v>       0.00462963 </v>
   <v>       0.00462963 </v>
   <v>       0.00462963 </v>
   <v>       0.00462963 </v>
   <v>       0.00462963 </v>
   <v>       0.00462963 </v>
   <v>       0.00462963 </v>
   <v>       0.00462963 </v>
   <v>       0.00462963 </v>
   <v>       0.00462963 </v>
   <v>       0.00462963 </v>
   <v>       0.00462963 </v>
   <v>       0.00462963 </v>
   <v>       0.00462963 </v>
   <v>       0.00462963 </v>
   <v>       0.00462963 </v>
   <v>       0.00462963 </v>
   <v>       0.00462963 </v>
   <v>       0.00462963 </v>
   <v>       0.00462963 </v>
   <v>       0.00462963 </v>
   <v>       0.00462963 </v>
   <v>       0.00462963 </v>
   <v>       0.00462963 </v>
   <v>       0.00462963 </v>
   <v>       0.00462963 </v>
   <v>       0.00462963 </v>
   <v>       0.00462963 </v>
   <v>       0.00462963 </v>
   <v>       0.00462963 </v>
   <v>       0.00462963 </v>
   <v>       0.00462963 </v>
   <v>       0.00462963 </v>
   <v>       0.00462963 </v>
   <v>       0.00462963 </v>
   <v>       0.00462963 </v>
   <v>       0.00462963 </v>
   <v>       0.00462963 </v>
   <v>       0.00462963 </v>
   <v>       0.00462963 </v>
   <v>       0.00462963 </v>
   <v>       0.00462963 </v>
   <v>       0.00462963 </v>
   <v>       0.00462963 </v>
   <v>       0.00462963 </v>
   <v>       0.00462963 </v>
   <v>       0.00462963 </v>
   <v>       0.00462963 </v>
   <v>       0.00462963 </v>
   <v>       0.00462963 </v>
   <v>       0.00462963 </v>
   <v>       0.00462963 </v>
   <v>       0.00462963 </v>
   <v>       0.00462963 </v>
   <v>       0.00462963 </v>
   <v>       0.00462963 </v>
   <v>       0.00462963 </v>
   <v>       0.00462963 </v>
   <v>       0.00462963 </v>
   <v>       0.00462963 </v>
   <v>       0.00462963 </v>
   <v>       0.00462963 </v>
   <v>       0.00462963 </v>
   <v>       0.00462963 </v>
   <v>       0.00462963 </v>
   <v>       0.00462963 </v>
   <v>       0.00462963 </v>
   <v>       0.00462963 </v>
   <v>       0.00462963 </v>
   <v>       0.00462963 </v>
   <v>       0.00462963 </v>
   <v>       0.00462963 </v>
   <v>       0.00462963 </v>
   <v>       0.00462963 </v>
   <v>       0.00462963 </v>
   <v>       0.00462963 </v>
   <v>       0.00462963 </v>
   <v>       0.00462963 </v>
   <v>       0.00462963 </v>
   <v>       0.00462963 </v>
   <v>       0.00462963 </v>
   <v>       0.00462963 </v>
   <v>       0.00462963 </v>
   <v>       0.00462963 </v>
   <v>       0.00462963 </v>
   <v>       0.00462963 </v>
   <v>       0.00462963 </v>
   <v>       0.00462963 </v>
   <v>       0.00462963 </v>
   <v>       0.00462963 </v>
   <v>       0.00462963 </v>
   <v>       0.00462963 </v>
   <v>       0.00462963 </v>
   <v>       0.00462963 </v>
   <v>       0.00462963 </v>
   <v>       0.00462963 </v>
   <v>       0.00462963 </v>
   <v>       0.00462963 </v>
   <v>       0.00462963 </v>
   <v>       0.00462963 </v>
   <v>       0.00462963 </v>
   <v>       0.00462963 </v>
   <v>       0.00462963 </v>
   <v>       0.00462963 </v>
   <v>       0.00462963 </v>
   <v>       0.00462963 </v>
   <v>       0.00462963 </v>
   <v>       0.00462963 </v>
   <v>       0.00462963 </v>
   <v>       0.00462963 </v>
   <v>       0.00462963 </v>
   <v>       0.00462963 </v>
   <v>       0.00462963 </v>
   <v>       0.00462963 </v>
   <v>       0.00462963 </v>
   <v>       0.00462963 </v>
   <v>       0.00462963 </v>
   <v>       0.00462963 </v>
   <v>       0.00462963 </v>
   <v>       0.00462963 </v>
   <v>       0.00462963 </v>
   <v>       0.00462963 </v>
   <v>       0.00462963 </v>
   <v>       0.00462963 </v>
   <v>       0.00462963 </v>
   <v>       0.00462963 </v>
   <v>       0.00462963 </v>
   <v>       0.00462963 </v>
   <v>       0.00462963 </v>
   <v>       0.00462963 </v>
   <v>       0.00462963 </v>
   <v>       0.00462963 </v>
   <v>       0.00462963 </v>
   <v>       0.00462963 </v>
   <v>       0.00462963 </v>
   <v>       0.00462963 </v>
   <v>       0.00462963 </v>
   <v>       0.00462963 </v>
   <v>       0.00462963 </v>
   <v>       0.00462963 </v>
   <v>       0.00462963 </v>
   <v>       0.00462963 </v>
   <v>       0.00462963 </v>
   <v>       0.00462963 </v>
   <v>       0.00462963 </v>
   <v>       0.00462963 </v>
   <v>       0.00462963 </v>
   <v>       0.00462963 </v>
   <v>       0.00462963 </v>
   <v>       0.00462963 </v>
  </varray>
 </kpoints>
 <parameters>
  <separator name="general" >
   <i type="string" name="SYSTEM">Og_FCC</i>
   <i type="logical" name="LCOMPAT"> F  </i>
  </separator>
  <separator name="electronic" >
   <i type="string" name="PREC">accura</i>
   <i name="ENMAX">    300.00000000</i>
   <i name="ENAUG">    755.75300000</i>
   <i name="EDIFF">      0.00000001</i>
   <i type="int" name="IALGO">    90</i>
   <i type="int" name="IWAVPR">    10</i>
   <i type="int" name="NBANDS">   128</i>
   <i name="NELECT">      8.00000000</i>
   <i type="int" name="TURBO">     0</i>
   <i type="int" name="IRESTART">     0</i>
   <i type="int" name="NREBOOT">     0</i>
   <i type="int" name="NMIN">     0</i>
   <i name="EREF">      0.00000000</i>
   <separator name="electronic smearing" >
    <i type="int" name="ISMEAR">     0</i>
    <i name="SIGMA">      0.00100000</i>
    <i name="KSPACING">      0.50000000</i>
    <i type="logical" name="KGAMMA"> T  </i>
   </separator>
   <separator name="electronic projectors" >
    <i type="logical" name="LREAL"> F  </i>
    <v name="ROPT">      0.00000000</v>
    <i type="int" name="LMAXPAW">  -100</i>
    <i type="int" name="LMAXMIX">     2</i>
    <i type="logical" name="NLSPLINE"> F  </i>
   </separator>
   <separator name="electronic startup" >
    <i type="int" name="ISTART">     1</i>
    <i type="int" name="ICHARG">     0</i>
    <i type="int" name="INIWAV">     1</i>
   </separator>
   <separator name="electronic spin" >
    <i type="int" name="ISPIN">     1</i>
    <i type="logical" name="LNONCOLLINEAR"> T  </i>
    <v name="MAGMOM">      1.00000000      1.00000000      1.00000000</v>
    <i name="NUPDOWN">     -1.00000000</i>
    <i type="logical" name="LSORBIT"> T  </i>
    <v name="SAXIS">      0.00000000      0.00000000      1.00000000</v>
    <i type="logical" name="LSPIRAL"> F  </i>
    <v name="QSPIRAL">      0.00000000      0.00000000      0.00000000</v>
    <i type="logical" name="LZEROZ"> F  </i>
   </separator>
   <separator name="electronic exchange-correlation" >
    <i type="logical" name="LASPH"> F  </i>
    <i type="logical" name="LMETAGGA"> F  </i>
   </separator>
   <separator name="electronic convergence" >
    <i type="int" name="NELM">    50</i>
    <i type="int" name="NELMDL">    -5</i>
    <i type="int" name="NELMIN">     2</i>
    <i name="ENINI">    300.00000000</i>
    <separator name="electronic convergence detail" >
     <i type="logical" name="LDIAG"> T  </i>
     <i type="logical" name="LSUBROT"> F  </i>
     <i name="WEIMIN">      0.00000000</i>
     <i name="EBREAK">      0.00000000</i>
     <i name="DEPER">      0.30000000</i>
     <i type="int" name="NRMM">     4</i>
     <i name="TIME">      0.40000000</i>
    </separator>
   </separator>
   <separator name="electronic mixer" >
    <i name="AMIX">      0.40000000</i>
    <i name="BMIX">      1.00000000</i>
    <i name="AMIN">      0.10000000</i>
    <i name="AMIX_MAG">      1.60000000</i>
    <i name="BMIX_MAG">      1.00000000</i>
    <separator name="electronic mixer details" >
     <i type="int" name="IMIX">     4</i>
     <i type="logical" name="MIXFIRST"> F  </i>
     <i type="int" name="MAXMIX">    50</i>
     <i name="WC">    100.00000000</i>
     <i type="int" name="INIMIX">     1</i>
     <i type="int" name="MIXPRE">     1</i>
     <i type="int" name="MREMOVE">     5</i>
    </separator>
   </separator>
   <separator name="electronic dipolcorrection" >
    <i type="logical" name="LDIPOL"> F  </i>
    <i type="logical" name="LMONO"> F  </i>
    <i type="int" name="IDIPOL">     0</i>
    <i name="EPSILON">      1.00000000</i>
    <v name="DIPOL">   -100.00000000   -100.00000000   -100.00000000</v>
    <i name="EFIELD">      0.00000000</i>
   </separator>
  </separator>
  <separator name="grids" >
   <i type="int" name="NGX">    18</i>
   <i type="int" name="NGY">    18</i>
   <i type="int" name="NGZ">    18</i>
   <i type="int" name="NGXF">    36</i>
   <i type="int" name="NGYF">    36</i>
   <i type="int" name="NGZF">    36</i>
   <i type="logical" name="ADDGRID"> T  </i>
  </separator>
  <separator name="ionic" >
   <i type="int" name="NSW">     1</i>
   <i type="int" name="IBRION">    -1</i>
   <i type="int" name="MDALGO">     0</i>
   <i type="int" name="ISIF">     3</i>
   <i name="PSTRESS">      0.00000000</i>
   <i name="EDIFFG">      0.00001000</i>
   <i type="int" name="NFREE">     5</i>
   <i name="POTIM">      0.10000000</i>
   <i name="SMASS">     -3.00000000</i>
   <i name="SCALEE">      1.00000000</i>
  </separator>
  <separator name="ionic md" >
   <i name="TEBEG">      0.00010000</i>
   <i name="TEEND">      0.00010000</i>
   <i type="int" name="NBLOCK">     1</i>
   <i type="int" name="KBLOCK">     1</i>
   <i type="int" name="NPACO">   256</i>
   <i name="APACO">     16.00000000</i>
  </separator>
  <separator name="symmetry" >
   <i type="int" name="ISYM">     0</i>
   <i name="SYMPREC">      0.00000010</i>
  </separator>
  <separator name="dos" >
   <i type="int" name="LORBIT">     0</i>
   <v name="RWIGS">     -1.00000000</v>
   <i type="int" name="NEDOS">   301</i>
   <i name="EMIN">     10.00000000</i>
   <i name="EMAX">    -10.00000000</i>
   <i name="EFERMI">      0.00000000</i>
  </separator>
  <separator name="writing" >
   <i type="int" name="NWRITE">     2</i>
   <i type="logical" name="LWAVE"> T  </i>
   <i type="logical" name="LDOWNSAMPLE"> F  </i>
   <i type="logical" name="LCHARG"> F  </i>
   <i type="logical" name="LPARD"> F  </i>
   <i type="logical" name="LVTOT"> F  </i>
   <i type="logical" name="LVHAR"> F  </i>
   <i type="logical" name="LELF"> F  </i>
   <i type="logical" name="LOPTICS"> T  </i>
   <v name="STM">      0.00000000      0.00000000      0.00000000      0.00000000      0.00000000      0.00000000      0.00000000</v>
  </separator>
  <separator name="performance" >
   <i type="int" name="NPAR">     2</i>
   <i type="int" name="NSIM">     4</i>
   <i type="int" name="NBLK">    -1</i>
   <i type="logical" name="LPLANE"> T  </i>
   <i type="logical" name="LSCALAPACK"> T  </i>
   <i type="logical" name="LSCAAWARE"> T  </i>
   <i type="logical" name="LSCALU"> F  </i>
   <i type="logical" name="LASYNC"> F  </i>
   <i type="logical" name="LORBITALREAL"> F  </i>
  </separator>
  <separator name="miscellaneous" >
   <i type="int" name="IDIOT">     3</i>
   <i type="int" name="ISPECIAL">     0</i>
   <i type="logical" name="LMUSIC"> F  </i>
   <v name="POMASS">     20.18000000</v>
   <v name="DARWINR">      0.00000000</v>
   <v name="DARWINV">      1.00000000</v>
   <i type="logical" name="LCORR"> T  </i>
  </separator>
  <i type="logical" name="GGA_COMPAT"> F  </i>
  <i type="logical" name="LBERRY"> F  </i>
  <i type="int" name="ICORELEVEL">     0</i>
  <i type="logical" name="LDAU"> F  </i>
  <i type="int" name="I_CONSTRAINED_M">     0</i>
  <separator name="electronic exchange-correlation" >
   <i type="string" name="GGA">PE</i>
   <i type="int" name="VOSKOWN">     0</i>
   <i type="logical" name="LHFCALC"> F  </i>
   <i type="string" name="PRECFOCK"></i>
   <i type="logical" name="LSYMGRAD"> F  </i>
   <i type="logical" name="LHFONE"> F  </i>
   <i type="logical" name="LRHFCALC"> F  </i>
   <i type="logical" name="LTHOMAS"> F  </i>
   <i type="logical" name="LMODELHF"> F  </i>
   <i name="ENCUT4O">     -1.00000000</i>
   <i type="int" name="EXXOEP">     0</i>
   <i type="int" name="FOURORBIT">     0</i>
   <i name="AEXX">      0.00000000</i>
   <i name="HFALPHA">      0.00000000</i>
   <i name="MCALPHA">      0.00000000</i>
   <i name="ALDAX">      1.00000000</i>
   <i name="AGGAX">      1.00000000</i>
   <i name="ALDAC">      1.00000000</i>
   <i name="AGGAC">      1.00000000</i>
   <i type="int" name="NKREDX">     1</i>
   <i type="int" name="NKREDY">     1</i>
   <i type="int" name="NKREDZ">     1</i>
   <i type="logical" name="SHIFTRED"> F  </i>
   <i type="logical" name="ODDONLY"> F  </i>
   <i type="logical" name="EVENONLY"> F  </i>
   <i type="int" name="LMAXFOCK">     0</i>
   <i type="int" name="NMAXFOCKAE">     0</i>
   <i type="logical" name="LFOCKAEDFT"> F  </i>
   <i name="HFSCREEN">      0.00000000</i>
   <i name="HFSCREENC">      0.00000000</i>
   <i type="int" name="NBANDSGWLOW">     0</i>
  </separator>
  <separator name="vdW DFT" >
   <i type="logical" name="LUSE_VDW"> F  </i>
   <i name="Zab_VDW">     -0.84910000</i>
   <i name="PARAM1">      0.12340000</i>
   <i name="PARAM2">      1.00000000</i>
   <i name="PARAM3">      0.00000000</i>
  </separator>
  <separator name="model GW" >
   <i type="int" name="MODEL_GW">     0</i>
   <i name="MODEL_EPS0">     13.34470917</i>
   <i name="MODEL_ALPHA">      1.00000000</i>
  </separator>
  <separator name="linear response parameters" >
   <i type="logical" name="LEPSILON"> F  </i>
   <i type="logical" name="LRPA"> F  </i>
   <i type="logical" name="LNABLA"> F  </i>
   <i type="logical" name="LVEL"> F  </i>
   <i type="int" name="KINTER">     0</i>
   <i name="CSHIFT">      0.10000000</i>
   <i name="OMEGAMAX">     -1.00000000</i>
   <i name="DEG_THRESHOLD">      0.00200000</i>
   <i name="RTIME">     -0.10000000</i>
   <i name="WPLASMAI">      0.00000000</i>
   <v name="DFIELD">      0.00000000      0.00000000      0.00000000</v>
   <v name="WPLASMA">      0.00000000      0.00000000      0.00000000      0.00000000      0.00000000      0.00000000      0.00000000      0.00000000      0.00000000</v>
  </separator>
  <separator name="orbital magnetization" >
   <i type="logical" name="NUCIND"> F  </i>
   <v name="MAGPOS">      0.00000000      0.00000000      0.00000000</v>
   <i type="logical" name="LNICSALL"> T  </i>
   <i type="logical" name="ORBITALMAG"> F  </i>
   <i type="logical" name="LMAGBLOCH"> F  </i>
   <i type="logical" name="LCHIMAG"> F  </i>
   <i type="logical" name="LGAUGE"> T  </i>
   <i type="int" name="MAGATOM">     0</i>
   <v name="MAGDIPOL">      0.00000000      0.00000000      0.00000000</v>
   <v name="AVECCONST">      0.00000000      0.00000000      0.00000000</v>
  </separator>
  <separator name="response functions" >
   <i type="logical" name="LADDER"> F  </i>
   <i type="logical" name="LRPAFORCE"> F  </i>
   <i type="logical" name="LFXC"> F  </i>
   <i type="logical" name="LHARTREE"> T  </i>
   <i type="int" name="IBSE">     0</i>
   <v type="int" name="KPOINT">    -1     0     0     0</v>
   <i type="logical" name="LTCTE"> F  </i>
   <i type="logical" name="LTETE"> F  </i>
   <i type="logical" name="LTRIPLET"> F  </i>
   <i type="logical" name="LFXCEPS"> F  </i>
   <i type="logical" name="LFXHEG"> F  </i>
   <i type="int" name="NATURALO">     2</i>
   <i type="logical" name="L2ORDER"> F  </i>
   <i type="logical" name="LMP2LT"> F  </i>
   <i type="logical" name="LUSEW"> F  </i>
   <i name="ENCUTGW">     -2.00000000</i>
   <i name="ENCUTGWSOFT">     -2.00000000</i>
   <i name="ENCUTLF">     -1.00000000</i>
   <i type="int" name="LMAXMP2">    -1</i>
   <i name="SCISSOR">      0.00000000</i>
   <i type="int" name="NOMEGA">     0</i>
   <i type="int" name="NOMEGAR">     0</i>
   <i type="int" name="NBANDSGW">    -1</i>
   <i type="int" name="NBANDSO">    -1</i>
   <i type="int" name="NBANDSV">    -1</i>
   <i type="int" name="NELM">    50</i>
   <i type="int" name="NELMHF">     1</i>
   <i type="int" name="DIM">     3</i>
   <i type="int" name="ANTIRES">     0</i>
   <i name="OMEGAMAX">    -30.00000000</i>
   <i name="OMEGAMIN">    -30.00000000</i>
   <i name="OMEGATL">   -200.00000000</i>
   <i type="int" name="OMEGAGRID">   140</i>
   <i name="CSHIFT">     -0.10000000</i>
   <i type="logical" name="SELFENERGY"> F  </i>
   <i type="logical" name="LSPECTRAL"> F  </i>
   <i type="logical" name="LSPECTRALGW"> F  </i>
   <i type="logical" name="LSINGLES"> F  </i>
   <i type="logical" name="LFERMIGW"> F  </i>
   <i type="logical" name="ODDONLYGW"> F  </i>
   <i type="logical" name="EVENONLYGW"> F  </i>
   <i type="int" name="NKREDLFX">     1</i>
   <i type="int" name="NKREDLFY">     1</i>
   <i type="int" name="NKREDLFZ">     1</i>
   <i type="int" name="MAXMEM">  2800</i>
   <i type="int" name="TELESCOPE">     0</i>
   <i type="int" name="TAUPAR">     1</i>
   <i type="int" name="OMEGAPAR">    -1</i>
   <i name="LAMBDA">      1.00000000</i>
  </separator>
  <separator name="External order field" >
   <i name="OFIELD_KAPPA">      0.00000000</i>
   <v name="OFIELD_K">      0.00000000      0.00000000      0.00000000</v>
   <i name="OFIELD_Q6_NEAR">      0.00000000</i>
   <i name="OFIELD_Q6_FAR">      0.00000000</i>
   <i name="OFIELD_A">      0.00000000</i>
  </separator>
 </parameters>
 <atominfo>
  <atoms>       1 </atoms>
  <types>       1 </types>
  <array name="atoms" >
   <dimension dim="1">ion</dimension>
   <field type="string">element</field>
   <field type="int">atomtype</field>
   <set>
    <rc><c>Ne</c><c>   1</c></rc>
   </set>
  </array>
  <array name="atomtypes" >
   <dimension dim="1">type</dimension>
   <field type="int">atomspertype</field>
   <field type="string">element</field>
   <field>mass</field>
   <field>valence</field>
   <field type="string">pseudopotential</field>
   <set>
    <rc><c>   1</c><c>Ne</c><c>     20.18000000</c><c>      8.00000000</c><c>  PAW_PBE Ne_GW 22Sep2014               </c></rc>
   </set>
  </array>
 </atominfo>
 <structure name="initialpos" >
  <crystal>
   <varray name="basis" >
    <v>       3.15663441       0.00000000       0.00000000 </v>
    <v>       1.57831721       2.73372559       0.00000000 </v>
    <v>       1.57831721       0.91124186       2.57738121 </v>
   </varray>
   <i name="volume">     22.24118194 </i>
   <varray name="rec_basis" >
    <v>       0.31679310      -0.18290058      -0.12933024 </v>
    <v>       0.00000000       0.36580116      -0.12933024 </v>
    <v>       0.00000000       0.00000000       0.38799072 </v>
   </varray>
  </crystal>
  <varray name="positions" >
   <v>       0.00000000       0.00000000       0.00000000 </v>
  </varray>
  <varray name="velocities" >
   <v>       0.00000000       0.00000000       0.00000000 </v>
  </varray>
 </structure>
 <calculation>
  <scstep>
   <time name="diag">   16.47   16.50</time>
   <time name="total">   16.54   16.56</time>
   <energy>
    <i name="alphaZ">     13.95530511 </i>
    <i name="ewald">   -473.25263642 </i>
    <i name="hartreedc">   -354.50505567 </i>
    <i name="XCdc">     45.52569497 </i>
    <i name="pawpsdc">    736.65006411 </i>
    <i name="pawaedc">   -778.06574050 </i>
    <i name="eentropy">      0.00000000 </i>
    <i name="bandstr">   -139.93858392 </i>
    <i name="atom">    952.67806118 </i>
    <i name="e_fr_energy">      3.04710885 </i>
    <i name="e_wo_entrp">      3.04710885 </i>
    <i name="e_0_energy">      3.04710885 </i>
   </energy>
  </scstep>
  <scstep>
   <time name="diag">   16.48   16.51</time>
   <time name="total">   16.49   16.51</time>
   <energy>
    <i name="e_fr_energy">      3.04710885 </i>
    <i name="e_wo_entrp">      3.04710885 </i>
    <i name="e_0_energy">      3.04710885 </i>
   </energy>
  </scstep>
  <scstep>
   <time name="diag">   16.50   16.53</time>
   <time name="total">   16.50   16.53</time>
   <energy>
    <i name="e_fr_energy">      3.04710885 </i>
    <i name="e_wo_entrp">      3.04710885 </i>
    <i name="e_0_energy">      3.04710885 </i>
   </energy>
  </scstep>
  <scstep>
   <time name="diag">   16.48   16.51</time>
   <time name="total">   16.49   16.51</time>
   <energy>
    <i name="e_fr_energy">      3.04710885 </i>
    <i name="e_wo_entrp">      3.04710885 </i>
    <i name="e_0_energy">      3.04710885 </i>
   </energy>
  </scstep>
  <scstep>
   <time name="diag">   16.51   16.54</time>
   <time name="total">   16.60   16.62</time>
   <energy>
    <i name="e_fr_energy">      3.04710885 </i>
    <i name="e_wo_entrp">      3.04710885 </i>
    <i name="e_0_energy">      3.04710885 </i>
   </energy>
  </scstep>
  <scstep>
   <time name="diag">   16.49   16.51</time>
   <time name="total">   16.55   16.57</time>
   <energy>
    <i name="alphaZ">     13.95530511 </i>
    <i name="ewald">   -473.25263642 </i>
    <i name="hartreedc">   -354.50515362 </i>
    <i name="XCdc">     45.52570119 </i>
    <i name="pawpsdc">    736.65015074 </i>
    <i name="pawaedc">   -778.06585039 </i>
    <i name="eentropy">      0.00000000 </i>
    <i name="bandstr">   -139.93846893 </i>
    <i name="atom">    952.67806118 </i>
    <i name="e_fr_energy">      3.04710885 </i>
    <i name="e_wo_entrp">      3.04710885 </i>
    <i name="e_0_energy">      3.04710885 </i>
   </energy>
  </scstep>
  <structure>
   <crystal>
    <varray name="basis" >
     <v>       3.15663441       0.00000000       0.00000000 </v>
     <v>       1.57831721       2.73372559       0.00000000 </v>
     <v>       1.57831721       0.91124186       2.57738121 </v>
    </varray>
    <i name="volume">     22.24118194 </i>
    <varray name="rec_basis" >
     <v>       0.31679310      -0.18290058      -0.12933024 </v>
     <v>       0.00000000       0.36580116      -0.12933024 </v>
     <v>       0.00000000       0.00000000       0.38799072 </v>
    </varray>
   </crystal>
   <varray name="positions" >
    <v>       0.00000000       0.00000000       0.00000000 </v>
   </varray>
  </structure>
  <varray name="forces" >
   <v>      -0.00000000       0.00000000      -0.00000000 </v>
  </varray>
  <varray name="stress" >
   <v>   -2231.75073498      -0.00075168      -0.00065256 </v>
   <v>      -0.00075195   -2231.75125518      -0.00078510 </v>
   <v>      -0.00065279      -0.00078541   -2231.74622494 </v>
  </varray>
  <energy>
   <i name="e_fr_energy">      3.02800582 </i>
   <i name="e_wo_entrp">      3.02800582 </i>
   <i name="e_0_energy">      0.00000000 </i>
  </energy>
  <time name="totalsc">  101.59  101.96</time>
  <eigenvalues>
   <array>
    <dimension dim="1">band</dimension>
    <dimension dim="2">kpoint</dimension>
    <dimension dim="3">spin</dimension>
    <field>eigene</field>
    <field>occ</field>
    <set>
     <set comment="spin 1">
      <set comment="kpoint 1">
       <r>  -35.4953    1.0000 </r>
       <r>  -35.4953    1.0000 </r>
       <r>  -11.2029    1.0000 </r>
       <r>  -11.2029    1.0000 </r>
       <r>  -11.1082    1.0000 </r>
       <r>  -11.1082    1.0000 </r>
       <r>  -11.1082    1.0000 </r>
       <r>  -11.1082    1.0000 </r>
       <r>    0.3888    0.0000 </r>
       <r>    0.3888    0.0000 </r>
       <r>   18.4519    0.0000 </r>
       <r>   18.4519    0.0000 </r>
       <r>   18.4520    0.0000 </r>
       <r>   18.4520    0.0000 </r>
       <r>   18.4521    0.0000 </r>
       <r>   18.4521    0.0000 </r>
       <r>   20.3342    0.0000 </r>
       <r>   20.3342    0.0000 </r>
       <r>   22.9315    0.0000 </r>
       <r>   22.9315    0.0000 </r>
       <r>   22.9419    0.0000 </r>
       <r>   22.9419    0.0000 </r>
       <r>   22.9420    0.0000 </r>
       <r>   22.9420    0.0000 </r>
       <r>   24.7566    0.0000 </r>
       <r>   24.7566    0.0000 </r>
       <r>   24.7566    0.0000 </r>
       <r>   24.7566    0.0000 </r>
       <r>   25.6225    0.0000 </r>
       <r>   25.6225    0.0000 </r>
       <r>   31.3814    0.0000 </r>
       <r>   31.3814    0.0000 </r>
       <r>   31.4096    0.0000 </r>
       <r>   31.4096    0.0000 </r>
       <r>   31.4097    0.0000 </r>
       <r>   31.4097    0.0000 </r>
       <r>   43.6723    0.0000 </r>
       <r>   43.6723    0.0000 </r>
       <r>   52.4071    0.0000 </r>
       <r>   52.4071    0.0000 </r>
       <r>   52.4071    0.0000 </r>
       <r>   52.4071    0.0000 </r>
       <r>   52.4083    0.0000 </r>
       <r>   52.4083    0.0000 </r>
       <r>   54.3512    0.0000 </r>
       <r>   54.3512    0.0000 </r>
       <r>   54.3513    0.0000 </r>
       <r>   54.3513    0.0000 </r>
       <r>   55.3693    0.0000 </r>
       <r>   55.3693    0.0000 </r>
       <r>   55.3694    0.0000 </r>
       <r>   55.3694    0.0000 </r>
       <r>   55.3694    0.0000 </r>
       <r>   55.3694    0.0000 </r>
       <r>   62.3812    0.0000 </r>
       <r>   62.3812    0.0000 </r>
       <r>   62.3968    0.0000 </r>
       <r>   62.3968    0.0000 </r>
       <r>   62.3970    0.0000 </r>
       <r>   62.3970    0.0000 </r>
       <r>   69.2518    0.0000 </r>
       <r>   69.2518    0.0000 </r>
       <r>   71.1838    0.0000 </r>
       <r>   71.1838    0.0000 </r>
       <r>   71.1838    0.0000 </r>
       <r>   71.1838    0.0000 </r>
       <r>   73.8802    0.0000 </r>
       <r>   73.8802    0.0000 </r>
       <r>   73.8803    0.0000 </r>
       <r>   73.8803    0.0000 </r>
       <r>   73.8818    0.0000 </r>
       <r>   73.8818    0.0000 </r>
       <r>   76.9556    0.0000 </r>
       <r>   76.9556    0.0000 </r>
       <r>   76.9558    0.0000 </r>
       <r>   76.9558    0.0000 </r>
       <r>   76.9558    0.0000 </r>
       <r>   76.9558    0.0000 </r>
       <r>   77.9788    0.0000 </r>
       <r>   77.9788    0.0000 </r>
       <r>   78.3377    0.0000 </r>
       <r>   78.3377    0.0000 </r>
       <r>   78.3378    0.0000 </r>
       <r>   78.3378    0.0000 </r>
       <r>   78.3379    0.0000 </r>
       <r>   78.3379    0.0000 </r>
       <r>   78.3667    0.0000 </r>
       <r>   78.3667    0.0000 </r>
       <r>   78.3670    0.0000 </r>
       <r>   78.3670    0.0000 </r>
       <r>   78.3670    0.0000 </r>
       <r>   78.3670    0.0000 </r>
       <r>   79.9250    0.0000 </r>
       <r>   79.9250    0.0000 </r>
       <r>   79.9251    0.0000 </r>
       <r>   79.9251    0.0000 </r>
       <r>   79.9251    0.0000 </r>
       <r>   79.9251    0.0000 </r>
       <r>   80.3103    0.0000 </r>
       <r>   80.3103    0.0000 </r>
       <r>   80.3104    0.0000 </r>
       <r>   80.3104    0.0000 </r>
       <r>   85.1475    0.0000 </r>
       <r>   85.1475    0.0000 </r>
       <r>   85.1515    0.0000 </r>
       <r>   85.1515    0.0000 </r>
       <r>   85.1518    0.0000 </r>
       <r>   85.1518    0.0000 </r>
       <r>   85.7835    0.0000 </r>
       <r>   85.7835    0.0000 </r>
       <r>   85.7836    0.0000 </r>
       <r>   85.7836    0.0000 </r>
       <r>   85.7838    0.0000 </r>
       <r>   85.7838    0.0000 </r>
       <r>   85.9797    0.0000 </r>
       <r>   85.9797    0.0000 </r>
       <r>   86.1550    0.0000 </r>
       <r>   86.1550    0.0000 </r>
       <r>   96.6997    0.0000 </r>
       <r>   96.6997    0.0000 </r>
       <r>   96.7518    0.0000 </r>
       <r>   96.7518    0.0000 </r>
       <r>   96.7520    0.0000 </r>
       <r>   96.7520    0.0000 </r>
       <r>  112.1297    0.0000 </r>
       <r>  112.1297    0.0000 </r>
       <r>  112.1298    0.0000 </r>
       <r>  112.1298    0.0000 </r>
      </set>
      <set comment="kpoint 2">
       <r>  -35.5020    1.0000 </r>
       <r>  -35.5020    1.0000 </r>
       <r>  -11.6928    1.0000 </r>
       <r>  -11.6928    1.0000 </r>
       <r>  -11.4349    1.0000 </r>
       <r>  -11.4349    1.0000 </r>
       <r>  -11.3782    1.0000 </r>
       <r>  -11.3782    1.0000 </r>
       <r>    1.1489    0.0000 </r>
       <r>    1.1489    0.0000 </r>
       <r>   14.3542    0.0000 </r>
       <r>   14.3542    0.0000 </r>
       <r>   18.2028    0.0000 </r>
       <r>   18.2028    0.0000 </r>
       <r>   18.2045    0.0000 </r>
       <r>   18.2045    0.0000 </r>
       <r>   20.4581    0.0000 </r>
       <r>   20.4581    0.0000 </r>
       <r>   22.0006    0.0000 </r>
       <r>   22.0006    0.0000 </r>
       <r>   22.0007    0.0000 </r>
       <r>   22.0007    0.0000 </r>
       <r>   24.6735    0.0000 </r>
       <r>   24.6735    0.0000 </r>
       <r>   25.9521    0.0000 </r>
       <r>   25.9521    0.0000 </r>
       <r>   25.9659    0.0000 </r>
       <r>   25.9659    0.0000 </r>
       <r>   28.4801    0.0000 </r>
       <r>   28.4801    0.0000 </r>
       <r>   31.6494    0.0000 </r>
       <r>   31.6494    0.0000 </r>
       <r>   33.2367    0.0000 </r>
       <r>   33.2367    0.0000 </r>
       <r>   33.2463    0.0000 </r>
       <r>   33.2463    0.0000 </r>
       <r>   44.9580    0.0000 </r>
       <r>   44.9580    0.0000 </r>
       <r>   46.1995    0.0000 </r>
       <r>   46.1995    0.0000 </r>
       <r>   46.2016    0.0000 </r>
       <r>   46.2016    0.0000 </r>
       <r>   51.0490    0.0000 </r>
       <r>   51.0490    0.0000 </r>
       <r>   53.9035    0.0000 </r>
       <r>   53.9035    0.0000 </r>
       <r>   53.9048    0.0000 </r>
       <r>   53.9048    0.0000 </r>
       <r>   55.9652    0.0000 </r>
       <r>   55.9652    0.0000 </r>
       <r>   60.1303    0.0000 </r>
       <r>   60.1303    0.0000 </r>
       <r>   60.5283    0.0000 </r>
       <r>   60.5283    0.0000 </r>
       <r>   60.5341    0.0000 </r>
       <r>   60.5341    0.0000 </r>
       <r>   63.5812    0.0000 </r>
       <r>   63.5812    0.0000 </r>
       <r>   63.5822    0.0000 </r>
       <r>   63.5822    0.0000 </r>
       <r>   67.1490    0.0000 </r>
       <r>   67.1490    0.0000 </r>
       <r>   67.1508    0.0000 </r>
       <r>   67.1508    0.0000 </r>
       <r>   67.7550    0.0000 </r>
       <r>   67.7550    0.0000 </r>
       <r>   70.0119    0.0000 </r>
       <r>   70.0119    0.0000 </r>
       <r>   70.0126    0.0000 </r>
       <r>   70.0126    0.0000 </r>
       <r>   71.4957    0.0000 </r>
       <r>   71.4957    0.0000 </r>
       <r>   71.7224    0.0000 </r>
       <r>   71.7224    0.0000 </r>
       <r>   72.9854    0.0000 </r>
       <r>   72.9854    0.0000 </r>
       <r>   72.9896    0.0000 </r>
       <r>   72.9896    0.0000 </r>
       <r>   73.7881    0.0000 </r>
       <r>   73.7881    0.0000 </r>
       <r>   75.6941    0.0000 </r>
       <r>   75.6941    0.0000 </r>
       <r>   75.6946    0.0000 </r>
       <r>   75.6946    0.0000 </r>
       <r>   76.0546    0.0000 </r>
       <r>   76.0546    0.0000 </r>
       <r>   79.0006    0.0000 </r>
       <r>   79.0006    0.0000 </r>
       <r>   81.1683    0.0000 </r>
       <r>   81.1683    0.0000 </r>
       <r>   81.1688    0.0000 </r>
       <r>   81.1688    0.0000 </r>
       <r>   82.9623    0.0000 </r>
       <r>   82.9623    0.0000 </r>
       <r>   82.9637    0.0000 </r>
       <r>   82.9637    0.0000 </r>
       <r>   83.3292    0.0000 </r>
       <r>   83.3292    0.0000 </r>
       <r>   85.5884    0.0000 </r>
       <r>   85.5884    0.0000 </r>
       <r>   85.5886    0.0000 </r>
       <r>   85.5886    0.0000 </r>
       <r>   86.4936    0.0000 </r>
       <r>   86.4936    0.0000 </r>
       <r>   87.4651    0.0000 </r>
       <r>   87.4651    0.0000 </r>
       <r>   90.9732    0.0000 </r>
       <r>   90.9732    0.0000 </r>
       <r>   90.9776    0.0000 </r>
       <r>   90.9776    0.0000 </r>
       <r>   91.5410    0.0000 </r>
       <r>   91.5410    0.0000 </r>
       <r>   91.5415    0.0000 </r>
       <r>   91.5415    0.0000 </r>
       <r>   91.5704    0.0000 </r>
       <r>   91.5704    0.0000 </r>
       <r>   94.4328    0.0000 </r>
       <r>   94.4328    0.0000 </r>
       <r>   95.4278    0.0000 </r>
       <r>   95.4278    0.0000 </r>
       <r>   95.4494    0.0000 </r>
       <r>   95.4494    0.0000 </r>
       <r>  101.3873    0.0000 </r>
       <r>  101.3873    0.0000 </r>
       <r>  107.3191    0.0000 </r>
       <r>  107.3191    0.0000 </r>
       <r>  107.5455    0.0000 </r>
       <r>  107.5455    0.0000 </r>
      </set>
      <set comment="kpoint 3">
       <r>  -35.4378    1.0000 </r>
       <r>  -35.4378    1.0000 </r>
       <r>  -11.4580    1.0000 </r>
       <r>  -11.4580    1.0000 </r>
       <r>  -11.2567    1.0000 </r>
       <r>  -11.2567    1.0000 </r>
       <r>  -11.2028    1.0000 </r>
       <r>  -11.2028    1.0000 </r>
       <r>    3.3298    0.0000 </r>
       <r>    3.3298    0.0000 </r>
       <r>   10.0487    0.0000 </r>
       <r>   10.0487    0.0000 </r>
       <r>   17.4801    0.0000 </r>
       <r>   17.4801    0.0000 </r>
       <r>   17.4808    0.0000 </r>
       <r>   17.4808    0.0000 </r>
       <r>   19.2848    0.0000 </r>
       <r>   19.2848    0.0000 </r>
       <r>   21.8081    0.0000 </r>
       <r>   21.8081    0.0000 </r>
       <r>   21.8161    0.0000 </r>
       <r>   21.8161    0.0000 </r>
       <r>   25.2422    0.0000 </r>
       <r>   25.2422    0.0000 </r>
       <r>   28.0290    0.0000 </r>
       <r>   28.0290    0.0000 </r>
       <r>   28.0395    0.0000 </r>
       <r>   28.0395    0.0000 </r>
       <r>   31.7537    0.0000 </r>
       <r>   31.7537    0.0000 </r>
       <r>   36.9841    0.0000 </r>
       <r>   36.9841    0.0000 </r>
       <r>   36.9844    0.0000 </r>
       <r>   36.9844    0.0000 </r>
       <r>   38.4909    0.0000 </r>
       <r>   38.4909    0.0000 </r>
       <r>   41.0060    0.0000 </r>
       <r>   41.0060    0.0000 </r>
       <r>   41.0135    0.0000 </r>
       <r>   41.0135    0.0000 </r>
       <r>   44.8008    0.0000 </r>
       <r>   44.8008    0.0000 </r>
       <r>   49.2169    0.0000 </r>
       <r>   49.2169    0.0000 </r>
       <r>   54.3293    0.0000 </r>
       <r>   54.3293    0.0000 </r>
       <r>   54.3298    0.0000 </r>
       <r>   54.3298    0.0000 </r>
       <r>   55.8008    0.0000 </r>
       <r>   55.8008    0.0000 </r>
       <r>   55.8015    0.0000 </r>
       <r>   55.8015    0.0000 </r>
       <r>   57.6890    0.0000 </r>
       <r>   57.6890    0.0000 </r>
       <r>   57.9579    0.0000 </r>
       <r>   57.9579    0.0000 </r>
       <r>   59.5039    0.0000 </r>
       <r>   59.5039    0.0000 </r>
       <r>   62.1591    0.0000 </r>
       <r>   62.1591    0.0000 </r>
       <r>   62.1625    0.0000 </r>
       <r>   62.1625    0.0000 </r>
       <r>   64.9636    0.0000 </r>
       <r>   64.9636    0.0000 </r>
       <r>   65.0328    0.0000 </r>
       <r>   65.0328    0.0000 </r>
       <r>   65.0332    0.0000 </r>
       <r>   65.0332    0.0000 </r>
       <r>   66.0141    0.0000 </r>
       <r>   66.0141    0.0000 </r>
       <r>   69.2882    0.0000 </r>
       <r>   69.2882    0.0000 </r>
       <r>   69.2975    0.0000 </r>
       <r>   69.2975    0.0000 </r>
       <r>   74.7333    0.0000 </r>
       <r>   74.7333    0.0000 </r>
       <r>   74.9797    0.0000 </r>
       <r>   74.9797    0.0000 </r>
       <r>   74.9801    0.0000 </r>
       <r>   74.9801    0.0000 </r>
       <r>   76.5487    0.0000 </r>
       <r>   76.5487    0.0000 </r>
       <r>   76.5490    0.0000 </r>
       <r>   76.5490    0.0000 </r>
       <r>   76.8291    0.0000 </r>
       <r>   76.8291    0.0000 </r>
       <r>   80.5263    0.0000 </r>
       <r>   80.5263    0.0000 </r>
       <r>   82.1925    0.0000 </r>
       <r>   82.1925    0.0000 </r>
       <r>   82.1973    0.0000 </r>
       <r>   82.1973    0.0000 </r>
       <r>   85.8687    0.0000 </r>
       <r>   85.8687    0.0000 </r>
       <r>   87.4292    0.0000 </r>
       <r>   87.4292    0.0000 </r>
       <r>   87.4376    0.0000 </r>
       <r>   87.4376    0.0000 </r>
       <r>   92.4498    0.0000 </r>
       <r>   92.4498    0.0000 </r>
       <r>   92.6590    0.0000 </r>
       <r>   92.6590    0.0000 </r>
       <r>   92.6623    0.0000 </r>
       <r>   92.6623    0.0000 </r>
       <r>   94.5241    0.0000 </r>
       <r>   94.5241    0.0000 </r>
       <r>   94.5244    0.0000 </r>
       <r>   94.5244    0.0000 </r>
       <r>   95.9037    0.0000 </r>
       <r>   95.9037    0.0000 </r>
       <r>   98.2576    0.0000 </r>
       <r>   98.2576    0.0000 </r>
       <r>   98.8378    0.0000 </r>
       <r>   98.8378    0.0000 </r>
       <r>   99.2509    0.0000 </r>
       <r>   99.2509    0.0000 </r>
       <r>   99.2510    0.0000 </r>
       <r>   99.2510    0.0000 </r>
       <r>  100.5749    0.0000 </r>
       <r>  100.5749    0.0000 </r>
       <r>  100.5788    0.0000 </r>
       <r>  100.5788    0.0000 </r>
       <r>  101.3205    0.0000 </r>
       <r>  101.3205    0.0000 </r>
       <r>  105.2979    0.0000 </r>
       <r>  105.2979    0.0000 </r>
       <r>  105.2993    0.0000 </r>
       <r>  105.2993    0.0000 </r>
      </set>
      <set comment="kpoint 4">
       <r>  -35.4408    1.0000 </r>
       <r>  -35.4408    1.0000 </r>
       <r>  -11.7120    1.0000 </r>
       <r>  -11.7120    1.0000 </r>
       <r>  -11.5521    1.0000 </r>
       <r>  -11.5521    1.0000 </r>
       <r>  -11.4990    1.0000 </r>
       <r>  -11.4990    1.0000 </r>
       <r>    6.2883    0.0000 </r>
       <r>    6.2883    0.0000 </r>
       <r>    6.3379    0.0000 </r>
       <r>    6.3379    0.0000 </r>
       <r>   17.0780    0.0000 </r>
       <r>   17.0780    0.0000 </r>
       <r>   17.0782    0.0000 </r>
       <r>   17.0782    0.0000 </r>
       <r>   19.0521    0.0000 </r>
       <r>   19.0521    0.0000 </r>
       <r>   21.8096    0.0000 </r>
       <r>   21.8096    0.0000 </r>
       <r>   21.8244    0.0000 </r>
       <r>   21.8244    0.0000 </r>
       <r>   24.2382    0.0000 </r>
       <r>   24.2382    0.0000 </r>
       <r>   29.7461    0.0000 </r>
       <r>   29.7461    0.0000 </r>
       <r>   29.7462    0.0000 </r>
       <r>   29.7462    0.0000 </r>
       <r>   35.2311    0.0000 </r>
       <r>   35.2311    0.0000 </r>
       <r>   35.2413    0.0000 </r>
       <r>   35.2413    0.0000 </r>
       <r>   36.1886    0.0000 </r>
       <r>   36.1886    0.0000 </r>
       <r>   40.1698    0.0000 </r>
       <r>   40.1698    0.0000 </r>
       <r>   44.7453    0.0000 </r>
       <r>   44.7453    0.0000 </r>
       <r>   44.7453    0.0000 </r>
       <r>   44.7453    0.0000 </r>
       <r>   47.2303    0.0000 </r>
       <r>   47.2303    0.0000 </r>
       <r>   48.0476    0.0000 </r>
       <r>   48.0476    0.0000 </r>
       <r>   48.0511    0.0000 </r>
       <r>   48.0511    0.0000 </r>
       <r>   48.3465    0.0000 </r>
       <r>   48.3465    0.0000 </r>
       <r>   51.7473    0.0000 </r>
       <r>   51.7473    0.0000 </r>
       <r>   55.5442    0.0000 </r>
       <r>   55.5442    0.0000 </r>
       <r>   56.5521    0.0000 </r>
       <r>   56.5521    0.0000 </r>
       <r>   56.5539    0.0000 </r>
       <r>   56.5539    0.0000 </r>
       <r>   59.4867    0.0000 </r>
       <r>   59.4868    0.0000 </r>
       <r>   61.5801    0.0000 </r>
       <r>   61.5801    0.0000 </r>
       <r>   61.5805    0.0000 </r>
       <r>   61.5805    0.0000 </r>
       <r>   62.6822    0.0000 </r>
       <r>   62.6822    0.0000 </r>
       <r>   62.6825    0.0000 </r>
       <r>   62.6825    0.0000 </r>
       <r>   62.9585    0.0000 </r>
       <r>   62.9585    0.0000 </r>
       <r>   65.5591    0.0000 </r>
       <r>   65.5591    0.0000 </r>
       <r>   69.2061    0.0000 </r>
       <r>   69.2061    0.0000 </r>
       <r>   69.2200    0.0000 </r>
       <r>   69.2200    0.0000 </r>
       <r>   74.5554    0.0000 </r>
       <r>   74.5554    0.0000 </r>
       <r>   74.5563    0.0000 </r>
       <r>   74.5563    0.0000 </r>
       <r>   74.7858    0.0000 </r>
       <r>   74.7858    0.0000 </r>
       <r>   75.5636    0.0000 </r>
       <r>   75.5636    0.0000 </r>
       <r>   81.0499    0.0000 </r>
       <r>   81.0499    0.0000 </r>
       <r>   81.0605    0.0000 </r>
       <r>   81.0605    0.0000 </r>
       <r>   82.5599    0.0000 </r>
       <r>   82.5599    0.0000 </r>
       <r>   86.0611    0.0000 </r>
       <r>   86.0611    0.0000 </r>
       <r>   86.0628    0.0000 </r>
       <r>   86.0628    0.0000 </r>
       <r>   89.9688    0.0000 </r>
       <r>   89.9688    0.0000 </r>
       <r>   90.0163    0.0000 </r>
       <r>   90.0163    0.0000 </r>
       <r>   90.0171    0.0000 </r>
       <r>   90.0171    0.0000 </r>
       <r>   90.6753    0.0000 </r>
       <r>   90.6753    0.0000 </r>
       <r>   90.6754    0.0000 </r>
       <r>   90.6754    0.0000 </r>
       <r>   90.8640    0.0000 </r>
       <r>   90.8640    0.0000 </r>
       <r>   96.2311    0.0000 </r>
       <r>   96.2311    0.0000 </r>
       <r>   96.2399    0.0000 </r>
       <r>   96.2399    0.0000 </r>
       <r>   97.8316    0.0000 </r>
       <r>   97.8316    0.0000 </r>
       <r>  100.2249    0.0000 </r>
       <r>  100.2249    0.0000 </r>
       <r>  100.2251    0.0000 </r>
       <r>  100.2251    0.0000 </r>
       <r>  101.7268    0.0000 </r>
       <r>  101.7268    0.0000 </r>
       <r>  104.4995    0.0000 </r>
       <r>  104.4995    0.0000 </r>
       <r>  104.5003    0.0000 </r>
       <r>  104.5003    0.0000 </r>
       <r>  105.3087    0.0000 </r>
       <r>  105.3087    0.0000 </r>
       <r>  105.3091    0.0000 </r>
       <r>  105.3091    0.0000 </r>
       <r>  106.4039    0.0000 </r>
       <r>  106.4039    0.0000 </r>
       <r>  106.7403    0.0000 </r>
       <r>  106.7403    0.0000 </r>
      </set>
      <set comment="kpoint 5">
       <r>  -35.4378    1.0000 </r>
       <r>  -35.4378    1.0000 </r>
       <r>  -11.4580    1.0000 </r>
       <r>  -11.4580    1.0000 </r>
       <r>  -11.2567    1.0000 </r>
       <r>  -11.2567    1.0000 </r>
       <r>  -11.2028    1.0000 </r>
       <r>  -11.2028    1.0000 </r>
       <r>    3.3298    0.0000 </r>
       <r>    3.3298    0.0000 </r>
       <r>   10.0487    0.0000 </r>
       <r>   10.0487    0.0000 </r>
       <r>   17.4801    0.0000 </r>
       <r>   17.4801    0.0000 </r>
       <r>   17.4808    0.0000 </r>
       <r>   17.4808    0.0000 </r>
       <r>   19.2848    0.0000 </r>
       <r>   19.2848    0.0000 </r>
       <r>   21.8081    0.0000 </r>
       <r>   21.8081    0.0000 </r>
       <r>   21.8161    0.0000 </r>
       <r>   21.8161    0.0000 </r>
       <r>   25.2422    0.0000 </r>
       <r>   25.2422    0.0000 </r>
       <r>   28.0290    0.0000 </r>
       <r>   28.0290    0.0000 </r>
       <r>   28.0395    0.0000 </r>
       <r>   28.0395    0.0000 </r>
       <r>   31.7537    0.0000 </r>
       <r>   31.7537    0.0000 </r>
       <r>   36.9841    0.0000 </r>
       <r>   36.9841    0.0000 </r>
       <r>   36.9844    0.0000 </r>
       <r>   36.9844    0.0000 </r>
       <r>   38.4909    0.0000 </r>
       <r>   38.4909    0.0000 </r>
       <r>   41.0060    0.0000 </r>
       <r>   41.0060    0.0000 </r>
       <r>   41.0135    0.0000 </r>
       <r>   41.0135    0.0000 </r>
       <r>   44.8008    0.0000 </r>
       <r>   44.8008    0.0000 </r>
       <r>   49.2169    0.0000 </r>
       <r>   49.2169    0.0000 </r>
       <r>   54.3293    0.0000 </r>
       <r>   54.3293    0.0000 </r>
       <r>   54.3298    0.0000 </r>
       <r>   54.3298    0.0000 </r>
       <r>   55.8008    0.0000 </r>
       <r>   55.8008    0.0000 </r>
       <r>   55.8015    0.0000 </r>
       <r>   55.8015    0.0000 </r>
       <r>   57.6890    0.0000 </r>
       <r>   57.6890    0.0000 </r>
       <r>   57.9579    0.0000 </r>
       <r>   57.9579    0.0000 </r>
       <r>   59.5039    0.0000 </r>
       <r>   59.5039    0.0000 </r>
       <r>   62.1591    0.0000 </r>
       <r>   62.1591    0.0000 </r>
       <r>   62.1625    0.0000 </r>
       <r>   62.1625    0.0000 </r>
       <r>   64.9636    0.0000 </r>
       <r>   64.9636    0.0000 </r>
       <r>   65.0328    0.0000 </r>
       <r>   65.0328    0.0000 </r>
       <r>   65.0332    0.0000 </r>
       <r>   65.0332    0.0000 </r>
       <r>   66.0141    0.0000 </r>
       <r>   66.0141    0.0000 </r>
       <r>   69.2882    0.0000 </r>
       <r>   69.2882    0.0000 </r>
       <r>   69.2975    0.0000 </r>
       <r>   69.2975    0.0000 </r>
       <r>   74.7333    0.0000 </r>
       <r>   74.7333    0.0000 </r>
       <r>   74.9797    0.0000 </r>
       <r>   74.9797    0.0000 </r>
       <r>   74.9801    0.0000 </r>
       <r>   74.9801    0.0000 </r>
       <r>   76.5487    0.0000 </r>
       <r>   76.5487    0.0000 </r>
       <r>   76.5490    0.0000 </r>
       <r>   76.5490    0.0000 </r>
       <r>   76.8291    0.0000 </r>
       <r>   76.8291    0.0000 </r>
       <r>   80.5263    0.0000 </r>
       <r>   80.5263    0.0000 </r>
       <r>   82.1925    0.0000 </r>
       <r>   82.1925    0.0000 </r>
       <r>   82.1973    0.0000 </r>
       <r>   82.1973    0.0000 </r>
       <r>   85.8687    0.0000 </r>
       <r>   85.8687    0.0000 </r>
       <r>   87.4292    0.0000 </r>
       <r>   87.4292    0.0000 </r>
       <r>   87.4376    0.0000 </r>
       <r>   87.4376    0.0000 </r>
       <r>   92.4498    0.0000 </r>
       <r>   92.4498    0.0000 </r>
       <r>   92.6590    0.0000 </r>
       <r>   92.6590    0.0000 </r>
       <r>   92.6623    0.0000 </r>
       <r>   92.6623    0.0000 </r>
       <r>   94.5241    0.0000 </r>
       <r>   94.5241    0.0000 </r>
       <r>   94.5244    0.0000 </r>
       <r>   94.5244    0.0000 </r>
       <r>   95.9037    0.0000 </r>
       <r>   95.9037    0.0000 </r>
       <r>   98.2576    0.0000 </r>
       <r>   98.2576    0.0000 </r>
       <r>   98.8378    0.0000 </r>
       <r>   98.8378    0.0000 </r>
       <r>   99.2509    0.0000 </r>
       <r>   99.2509    0.0000 </r>
       <r>   99.2510    0.0000 </r>
       <r>   99.2510    0.0000 </r>
       <r>  100.5749    0.0000 </r>
       <r>  100.5749    0.0000 </r>
       <r>  100.5788    0.0000 </r>
       <r>  100.5788    0.0000 </r>
       <r>  101.3205    0.0000 </r>
       <r>  101.3205    0.0000 </r>
       <r>  105.2979    0.0000 </r>
       <r>  105.2979    0.0000 </r>
       <r>  105.2993    0.0000 </r>
       <r>  105.2993    0.0000 </r>
      </set>
      <set comment="kpoint 6">
       <r>  -35.5020    1.0000 </r>
       <r>  -35.5020    1.0000 </r>
       <r>  -11.6928    1.0000 </r>
       <r>  -11.6928    1.0000 </r>
       <r>  -11.4349    1.0000 </r>
       <r>  -11.4349    1.0000 </r>
       <r>  -11.3782    1.0000 </r>
       <r>  -11.3782    1.0000 </r>
       <r>    1.1489    0.0000 </r>
       <r>    1.1489    0.0000 </r>
       <r>   14.3542    0.0000 </r>
       <r>   14.3542    0.0000 </r>
       <r>   18.2028    0.0000 </r>
       <r>   18.2028    0.0000 </r>
       <r>   18.2045    0.0000 </r>
       <r>   18.2045    0.0000 </r>
       <r>   20.4581    0.0000 </r>
       <r>   20.4581    0.0000 </r>
       <r>   22.0006    0.0000 </r>
       <r>   22.0006    0.0000 </r>
       <r>   22.0007    0.0000 </r>
       <r>   22.0007    0.0000 </r>
       <r>   24.6735    0.0000 </r>
       <r>   24.6735    0.0000 </r>
       <r>   25.9521    0.0000 </r>
       <r>   25.9521    0.0000 </r>
       <r>   25.9659    0.0000 </r>
       <r>   25.9659    0.0000 </r>
       <r>   28.4801    0.0000 </r>
       <r>   28.4801    0.0000 </r>
       <r>   31.6494    0.0000 </r>
       <r>   31.6494    0.0000 </r>
       <r>   33.2367    0.0000 </r>
       <r>   33.2367    0.0000 </r>
       <r>   33.2463    0.0000 </r>
       <r>   33.2463    0.0000 </r>
       <r>   44.9580    0.0000 </r>
       <r>   44.9580    0.0000 </r>
       <r>   46.1995    0.0000 </r>
       <r>   46.1995    0.0000 </r>
       <r>   46.2016    0.0000 </r>
       <r>   46.2016    0.0000 </r>
       <r>   51.0490    0.0000 </r>
       <r>   51.0490    0.0000 </r>
       <r>   53.9035    0.0000 </r>
       <r>   53.9035    0.0000 </r>
       <r>   53.9048    0.0000 </r>
       <r>   53.9048    0.0000 </r>
       <r>   55.9652    0.0000 </r>
       <r>   55.9652    0.0000 </r>
       <r>   60.1303    0.0000 </r>
       <r>   60.1303    0.0000 </r>
       <r>   60.5283    0.0000 </r>
       <r>   60.5283    0.0000 </r>
       <r>   60.5341    0.0000 </r>
       <r>   60.5341    0.0000 </r>
       <r>   63.5812    0.0000 </r>
       <r>   63.5812    0.0000 </r>
       <r>   63.5822    0.0000 </r>
       <r>   63.5822    0.0000 </r>
       <r>   67.1490    0.0000 </r>
       <r>   67.1490    0.0000 </r>
       <r>   67.1508    0.0000 </r>
       <r>   67.1508    0.0000 </r>
       <r>   67.7550    0.0000 </r>
       <r>   67.7550    0.0000 </r>
       <r>   70.0119    0.0000 </r>
       <r>   70.0119    0.0000 </r>
       <r>   70.0126    0.0000 </r>
       <r>   70.0126    0.0000 </r>
       <r>   71.4957    0.0000 </r>
       <r>   71.4957    0.0000 </r>
       <r>   71.7224    0.0000 </r>
       <r>   71.7224    0.0000 </r>
       <r>   72.9854    0.0000 </r>
       <r>   72.9854    0.0000 </r>
       <r>   72.9896    0.0000 </r>
       <r>   72.9896    0.0000 </r>
       <r>   73.7881    0.0000 </r>
       <r>   73.7881    0.0000 </r>
       <r>   75.6941    0.0000 </r>
       <r>   75.6941    0.0000 </r>
       <r>   75.6946    0.0000 </r>
       <r>   75.6946    0.0000 </r>
       <r>   76.0546    0.0000 </r>
       <r>   76.0546    0.0000 </r>
       <r>   79.0006    0.0000 </r>
       <r>   79.0006    0.0000 </r>
       <r>   81.1683    0.0000 </r>
       <r>   81.1683    0.0000 </r>
       <r>   81.1688    0.0000 </r>
       <r>   81.1688    0.0000 </r>
       <r>   82.9623    0.0000 </r>
       <r>   82.9623    0.0000 </r>
       <r>   82.9637    0.0000 </r>
       <r>   82.9637    0.0000 </r>
       <r>   83.3292    0.0000 </r>
       <r>   83.3292    0.0000 </r>
       <r>   85.5884    0.0000 </r>
       <r>   85.5884    0.0000 </r>
       <r>   85.5886    0.0000 </r>
       <r>   85.5886    0.0000 </r>
       <r>   86.4936    0.0000 </r>
       <r>   86.4936    0.0000 </r>
       <r>   87.4651    0.0000 </r>
       <r>   87.4651    0.0000 </r>
       <r>   90.9732    0.0000 </r>
       <r>   90.9732    0.0000 </r>
       <r>   90.9776    0.0000 </r>
       <r>   90.9776    0.0000 </r>
       <r>   91.5410    0.0000 </r>
       <r>   91.5410    0.0000 </r>
       <r>   91.5415    0.0000 </r>
       <r>   91.5415    0.0000 </r>
       <r>   91.5704    0.0000 </r>
       <r>   91.5704    0.0000 </r>
       <r>   94.4328    0.0000 </r>
       <r>   94.4328    0.0000 </r>
       <r>   95.4278    0.0000 </r>
       <r>   95.4278    0.0000 </r>
       <r>   95.4494    0.0000 </r>
       <r>   95.4494    0.0000 </r>
       <r>  101.3873    0.0000 </r>
       <r>  101.3873    0.0000 </r>
       <r>  107.3191    0.0000 </r>
       <r>  107.3191    0.0000 </r>
       <r>  107.5455    0.0000 </r>
       <r>  107.5455    0.0000 </r>
      </set>
      <set comment="kpoint 7">
       <r>  -35.5020    1.0000 </r>
       <r>  -35.5020    1.0000 </r>
       <r>  -11.6928    1.0000 </r>
       <r>  -11.6928    1.0000 </r>
       <r>  -11.4349    1.0000 </r>
       <r>  -11.4349    1.0000 </r>
       <r>  -11.3782    1.0000 </r>
       <r>  -11.3782    1.0000 </r>
       <r>    1.1489    0.0000 </r>
       <r>    1.1489    0.0000 </r>
       <r>   14.3543    0.0000 </r>
       <r>   14.3543    0.0000 </r>
       <r>   18.2028    0.0000 </r>
       <r>   18.2028    0.0000 </r>
       <r>   18.2045    0.0000 </r>
       <r>   18.2045    0.0000 </r>
       <r>   20.4582    0.0000 </r>
       <r>   20.4582    0.0000 </r>
       <r>   22.0005    0.0000 </r>
       <r>   22.0005    0.0000 </r>
       <r>   22.0006    0.0000 </r>
       <r>   22.0006    0.0000 </r>
       <r>   24.6735    0.0000 </r>
       <r>   24.6735    0.0000 </r>
       <r>   25.9521    0.0000 </r>
       <r>   25.9521    0.0000 </r>
       <r>   25.9659    0.0000 </r>
       <r>   25.9659    0.0000 </r>
       <r>   28.4801    0.0000 </r>
       <r>   28.4801    0.0000 </r>
       <r>   31.6494    0.0000 </r>
       <r>   31.6494    0.0000 </r>
       <r>   33.2367    0.0000 </r>
       <r>   33.2367    0.0000 </r>
       <r>   33.2463    0.0000 </r>
       <r>   33.2463    0.0000 </r>
       <r>   44.9580    0.0000 </r>
       <r>   44.9580    0.0000 </r>
       <r>   46.1994    0.0000 </r>
       <r>   46.1994    0.0000 </r>
       <r>   46.2016    0.0000 </r>
       <r>   46.2016    0.0000 </r>
       <r>   51.0491    0.0000 </r>
       <r>   51.0491    0.0000 </r>
       <r>   53.9035    0.0000 </r>
       <r>   53.9035    0.0000 </r>
       <r>   53.9048    0.0000 </r>
       <r>   53.9048    0.0000 </r>
       <r>   55.9652    0.0000 </r>
       <r>   55.9652    0.0000 </r>
       <r>   60.1303    0.0000 </r>
       <r>   60.1303    0.0000 </r>
       <r>   60.5283    0.0000 </r>
       <r>   60.5283    0.0000 </r>
       <r>   60.5341    0.0000 </r>
       <r>   60.5341    0.0000 </r>
       <r>   63.5812    0.0000 </r>
       <r>   63.5812    0.0000 </r>
       <r>   63.5822    0.0000 </r>
       <r>   63.5822    0.0000 </r>
       <r>   67.1490    0.0000 </r>
       <r>   67.1490    0.0000 </r>
       <r>   67.1508    0.0000 </r>
       <r>   67.1508    0.0000 </r>
       <r>   67.7550    0.0000 </r>
       <r>   67.7550    0.0000 </r>
       <r>   70.0119    0.0000 </r>
       <r>   70.0119    0.0000 </r>
       <r>   70.0126    0.0000 </r>
       <r>   70.0126    0.0000 </r>
       <r>   71.4957    0.0000 </r>
       <r>   71.4957    0.0000 </r>
       <r>   71.7224    0.0000 </r>
       <r>   71.7224    0.0000 </r>
       <r>   72.9855    0.0000 </r>
       <r>   72.9855    0.0000 </r>
       <r>   72.9897    0.0000 </r>
       <r>   72.9897    0.0000 </r>
       <r>   73.7881    0.0000 </r>
       <r>   73.7881    0.0000 </r>
       <r>   75.6941    0.0000 </r>
       <r>   75.6941    0.0000 </r>
       <r>   75.6946    0.0000 </r>
       <r>   75.6946    0.0000 </r>
       <r>   76.0547    0.0000 </r>
       <r>   76.0547    0.0000 </r>
       <r>   79.0007    0.0000 </r>
       <r>   79.0007    0.0000 </r>
       <r>   81.1683    0.0000 </r>
       <r>   81.1683    0.0000 </r>
       <r>   81.1688    0.0000 </r>
       <r>   81.1688    0.0000 </r>
       <r>   82.9623    0.0000 </r>
       <r>   82.9623    0.0000 </r>
       <r>   82.9637    0.0000 </r>
       <r>   82.9637    0.0000 </r>
       <r>   83.3292    0.0000 </r>
       <r>   83.3292    0.0000 </r>
       <r>   85.5884    0.0000 </r>
       <r>   85.5884    0.0000 </r>
       <r>   85.5886    0.0000 </r>
       <r>   85.5886    0.0000 </r>
       <r>   86.4935    0.0000 </r>
       <r>   86.4935    0.0000 </r>
       <r>   87.4651    0.0000 </r>
       <r>   87.4651    0.0000 </r>
       <r>   90.9731    0.0000 </r>
       <r>   90.9731    0.0000 </r>
       <r>   90.9776    0.0000 </r>
       <r>   90.9776    0.0000 </r>
       <r>   91.5410    0.0000 </r>
       <r>   91.5410    0.0000 </r>
       <r>   91.5415    0.0000 </r>
       <r>   91.5415    0.0000 </r>
       <r>   91.5705    0.0000 </r>
       <r>   91.5705    0.0000 </r>
       <r>   94.4328    0.0000 </r>
       <r>   94.4328    0.0000 </r>
       <r>   95.4278    0.0000 </r>
       <r>   95.4278    0.0000 </r>
       <r>   95.4494    0.0000 </r>
       <r>   95.4494    0.0000 </r>
       <r>  101.3873    0.0000 </r>
       <r>  101.3873    0.0000 </r>
       <r>  107.3191    0.0000 </r>
       <r>  107.3191    0.0000 </r>
       <r>  107.5455    0.0000 </r>
       <r>  107.5455    0.0000 </r>
      </set>
      <set comment="kpoint 8">
       <r>  -35.4795    1.0000 </r>
       <r>  -35.4795    1.0000 </r>
       <r>  -11.5077    1.0000 </r>
       <r>  -11.5077    1.0000 </r>
       <r>  -11.3162    1.0000 </r>
       <r>  -11.3162    1.0000 </r>
       <r>  -11.2637    1.0000 </r>
       <r>  -11.2637    1.0000 </r>
       <r>    1.3993    0.0000 </r>
       <r>    1.3993    0.0000 </r>
       <r>   15.1264    0.0000 </r>
       <r>   15.1264    0.0000 </r>
       <r>   17.1078    0.0000 </r>
       <r>   17.1078    0.0000 </r>
       <r>   17.1133    0.0000 </r>
       <r>   17.1133    0.0000 </r>
       <r>   17.5058    0.0000 </r>
       <r>   17.5058    0.0000 </r>
       <r>   23.9198    0.0000 </r>
       <r>   23.9198    0.0000 </r>
       <r>   25.3269    0.0000 </r>
       <r>   25.3269    0.0000 </r>
       <r>   25.5524    0.0000 </r>
       <r>   25.5524    0.0000 </r>
       <r>   25.9659    0.0000 </r>
       <r>   25.9659    0.0000 </r>
       <r>   25.9689    0.0000 </r>
       <r>   25.9689    0.0000 </r>
       <r>   28.2935    0.0000 </r>
       <r>   28.2935    0.0000 </r>
       <r>   31.4899    0.0000 </r>
       <r>   31.4899    0.0000 </r>
       <r>   31.5055    0.0000 </r>
       <r>   31.5055    0.0000 </r>
       <r>   35.6214    0.0000 </r>
       <r>   35.6214    0.0000 </r>
       <r>   45.4117    0.0000 </r>
       <r>   45.4117    0.0000 </r>
       <r>   45.8352    0.0000 </r>
       <r>   45.8352    0.0000 </r>
       <r>   47.0971    0.0000 </r>
       <r>   47.0971    0.0000 </r>
       <r>   47.1016    0.0000 </r>
       <r>   47.1016    0.0000 </r>
       <r>   53.0784    0.0000 </r>
       <r>   53.0784    0.0000 </r>
       <r>   53.2091    0.0000 </r>
       <r>   53.2091    0.0000 </r>
       <r>   58.6849    0.0000 </r>
       <r>   58.6849    0.0000 </r>
       <r>   59.5245    0.0000 </r>
       <r>   59.5245    0.0000 </r>
       <r>   59.5294    0.0000 </r>
       <r>   59.5294    0.0000 </r>
       <r>   62.4913    0.0000 </r>
       <r>   62.4913    0.0000 </r>
       <r>   62.4920    0.0000 </r>
       <r>   62.4920    0.0000 </r>
       <r>   65.0710    0.0000 </r>
       <r>   65.0710    0.0000 </r>
       <r>   65.1705    0.0000 </r>
       <r>   65.1705    0.0000 </r>
       <r>   66.5032    0.0000 </r>
       <r>   66.5032    0.0000 </r>
       <r>   66.5056    0.0000 </r>
       <r>   66.5056    0.0000 </r>
       <r>   67.1978    0.0000 </r>
       <r>   67.1978    0.0000 </r>
       <r>   69.8223    0.0000 </r>
       <r>   69.8223    0.0000 </r>
       <r>   71.3649    0.0000 </r>
       <r>   71.3649    0.0000 </r>
       <r>   74.0559    0.0000 </r>
       <r>   74.0559    0.0000 </r>
       <r>   74.0560    0.0000 </r>
       <r>   74.0560    0.0000 </r>
       <r>   74.0797    0.0000 </r>
       <r>   74.0797    0.0000 </r>
       <r>   75.0507    0.0000 </r>
       <r>   75.0507    0.0000 </r>
       <r>   76.9713    0.0000 </r>
       <r>   76.9713    0.0000 </r>
       <r>   76.9746    0.0000 </r>
       <r>   76.9746    0.0000 </r>
       <r>   77.7675    0.0000 </r>
       <r>   77.7675    0.0000 </r>
       <r>   77.7700    0.0000 </r>
       <r>   77.7700    0.0000 </r>
       <r>   77.7829    0.0000 </r>
       <r>   77.7829    0.0000 </r>
       <r>   78.0641    0.0000 </r>
       <r>   78.0641    0.0000 </r>
       <r>   81.7897    0.0000 </r>
       <r>   81.7897    0.0000 </r>
       <r>   83.0074    0.0000 </r>
       <r>   83.0074    0.0000 </r>
       <r>   83.3250    0.0000 </r>
       <r>   83.3250    0.0000 </r>
       <r>   84.6871    0.0000 </r>
       <r>   84.6871    0.0000 </r>
       <r>   84.6872    0.0000 </r>
       <r>   84.6872    0.0000 </r>
       <r>   85.3023    0.0000 </r>
       <r>   85.3023    0.0000 </r>
       <r>   90.8038    0.0000 </r>
       <r>   90.8038    0.0000 </r>
       <r>   90.8118    0.0000 </r>
       <r>   90.8118    0.0000 </r>
       <r>   91.0245    0.0000 </r>
       <r>   91.0245    0.0000 </r>
       <r>   94.2448    0.0000 </r>
       <r>   94.2448    0.0000 </r>
       <r>   95.2396    0.0000 </r>
       <r>   95.2396    0.0000 </r>
       <r>   95.2546    0.0000 </r>
       <r>   95.2546    0.0000 </r>
       <r>   96.8051    0.0000 </r>
       <r>   96.8051    0.0000 </r>
       <r>   97.6143    0.0000 </r>
       <r>   97.6143    0.0000 </r>
       <r>   98.1837    0.0000 </r>
       <r>   98.1837    0.0000 </r>
       <r>   98.1924    0.0000 </r>
       <r>   98.1924    0.0000 </r>
       <r>  102.3665    0.0000 </r>
       <r>  102.3665    0.0000 </r>
       <r>  112.2399    0.0000 </r>
       <r>  112.2399    0.0000 </r>
      </set>
      <set comment="kpoint 9">
       <r>  -35.4590    1.0000 </r>
       <r>  -35.4590    1.0000 </r>
       <r>  -11.7030    1.0000 </r>
       <r>  -11.7030    1.0000 </r>
       <r>  -11.5244    1.0000 </r>
       <r>  -11.5244    1.0000 </r>
       <r>  -11.4652    1.0000 </r>
       <r>  -11.4652    1.0000 </r>
       <r>    3.0474    0.0000 </r>
       <r>    3.0474    0.0000 </r>
       <r>   11.6657    0.0000 </r>
       <r>   11.6657    0.0000 </r>
       <r>   14.7912    0.0000 </r>
       <r>   14.7912    0.0000 </r>
       <r>   16.5132    0.0000 </r>
       <r>   16.5132    0.0000 </r>
       <r>   18.2216    0.0000 </r>
       <r>   18.2216    0.0000 </r>
       <r>   23.5666    0.0000 </r>
       <r>   23.5666    0.0000 </r>
       <r>   24.7006    0.0000 </r>
       <r>   24.7006    0.0000 </r>
       <r>   25.2205    0.0000 </r>
       <r>   25.2205    0.0000 </r>
       <r>   27.8502    0.0000 </r>
       <r>   27.8502    0.0000 </r>
       <r>   29.3223    0.0000 </r>
       <r>   29.3223    0.0000 </r>
       <r>   31.8333    0.0000 </r>
       <r>   31.8333    0.0000 </r>
       <r>   33.5757    0.0000 </r>
       <r>   33.5757    0.0000 </r>
       <r>   34.8471    0.0000 </r>
       <r>   34.8471    0.0000 </r>
       <r>   39.9385    0.0000 </r>
       <r>   39.9385    0.0000 </r>
       <r>   40.2628    0.0000 </r>
       <r>   40.2628    0.0000 </r>
       <r>   42.4073    0.0000 </r>
       <r>   42.4073    0.0000 </r>
       <r>   46.3556    0.0000 </r>
       <r>   46.3556    0.0000 </r>
       <r>   47.8101    0.0000 </r>
       <r>   47.8101    0.0000 </r>
       <r>   51.3343    0.0000 </r>
       <r>   51.3343    0.0000 </r>
       <r>   52.9499    0.0000 </r>
[...]
       <r>    72.4973     0.0000     0.0000 </r>
       <r>    73.0391     0.0000     0.0000 </r>
       <r>    73.5808     0.0000     0.0000 </r>
       <r>    74.1225     0.0000     0.0000 </r>
       <r>    74.6642     0.0000     0.0000 </r>
       <r>    75.2059     0.0000     0.0000 </r>
       <r>    75.7477     0.0000     0.0000 </r>
       <r>    76.2894     0.0000     0.0000 </r>
       <r>    76.8311     0.0000     0.0000 </r>
       <r>    77.3728     0.0000     0.0000 </r>
       <r>    77.9145     0.0000     0.0000 </r>
       <r>    78.4563     0.0000     0.0000 </r>
       <r>    78.9980     0.0000     0.0000 </r>
       <r>    79.5397     0.0000     0.0000 </r>
       <r>    80.0814     0.0000     0.0000 </r>
       <r>    80.6231     0.0000     0.0000 </r>
       <r>    81.1649     0.0000     0.0000 </r>
       <r>    81.7066     0.0000     0.0000 </r>
       <r>    82.2483     0.0000     0.0000 </r>
       <r>    82.7900     0.0000     0.0000 </r>
       <r>    83.3317     0.0000     0.0000 </r>
       <r>    83.8735     0.0000     0.0000 </r>
       <r>    84.4152     0.0000     0.0000 </r>
       <r>    84.9569     0.0000     0.0000 </r>
       <r>    85.4986     0.0000     0.0000 </r>
       <r>    86.0403     0.0000     0.0000 </r>
       <r>    86.5821     0.0000     0.0000 </r>
       <r>    87.1238     0.0000     0.0000 </r>
       <r>    87.6655     0.0000     0.0000 </r>
       <r>    88.2072     0.0000     0.0000 </r>
       <r>    88.7489     0.0000     0.0000 </r>
       <r>    89.2907     0.0000     0.0000 </r>
       <r>    89.8324     0.0000     0.0000 </r>
       <r>    90.3741     0.0000     0.0000 </r>
       <r>    90.9158     0.0000     0.0000 </r>
       <r>    91.4575     0.0000     0.0000 </r>
       <r>    91.9993     0.0000     0.0000 </r>
       <r>    92.5410     0.0000     0.0000 </r>
       <r>    93.0827     0.0000     0.0000 </r>
       <r>    93.6244     0.0000     0.0000 </r>
       <r>    94.1661     0.0000     0.0000 </r>
       <r>    94.7079     0.0000     0.0000 </r>
       <r>    95.2496     0.0000     0.0000 </r>
       <r>    95.7913     0.0000     0.0000 </r>
       <r>    96.3330     0.0000     0.0000 </r>
       <r>    96.8747     0.0000     0.0000 </r>
       <r>    97.4165     0.0000     0.0000 </r>
       <r>    97.9582     0.0000     0.0000 </r>
       <r>    98.4999     0.0000     0.0000 </r>
       <r>    99.0416     0.0000     0.0000 </r>
       <r>    99.5833     0.0000     0.0000 </r>
       <r>   100.1251     0.0000     0.0000 </r>
       <r>   100.6668     0.0000     0.0000 </r>
       <r>   101.2085     0.0000     0.0000 </r>
       <r>   101.7502     0.0000     0.0000 </r>
       <r>   102.2919     0.0000     0.0000 </r>
       <r>   102.8337     0.0000     0.0000 </r>
       <r>   103.3754     0.0000     0.0000 </r>
       <r>   103.9171     0.0000     0.0000 </r>
       <r>   104.4588     0.0000     0.0000 </r>
       <r>   105.0005     0.0000     0.0000 </r>
       <r>   105.5423     0.0000     0.0000 </r>
       <r>   106.0840     0.0000     0.0000 </r>
       <r>   106.6257     0.0000     0.0000 </r>
       <r>   107.1674     0.0000     0.0000 </r>
       <r>   107.7091     0.0000     0.0000 </r>
       <r>   108.2509     0.0000     0.0000 </r>
       <r>   108.7926     0.0000     0.0000 </r>
       <r>   109.3343     0.0000     0.0000 </r>
       <r>   109.8760     0.0000     0.0000 </r>
       <r>   110.4177     0.0000     0.0000 </r>
       <r>   110.9595     0.0000     0.0000 </r>
       <r>   111.5012     0.0000     0.0000 </r>
       <r>   112.0429     0.0000     0.0000 </r>
       <r>   112.5846     0.0000     0.0000 </r>
       <r>   113.1263     0.0000     0.0000 </r>
       <r>   113.6681     0.0000     0.0000 </r>
       <r>   114.2098     0.0000     0.0000 </r>
       <r>   114.7515     0.0000     0.0000 </r>
       <r>   115.2932     0.0000     0.0000 </r>
       <r>   115.8349     0.0000     0.0000 </r>
       <r>   116.3767     0.0000     0.0000 </r>
       <r>   116.9184     0.0000     0.0000 </r>
       <r>   117.4601     0.0000     0.0000 </r>
       <r>   118.0018     0.0000     0.0000 </r>
       <r>   118.5436     0.0000     0.0000 </r>
       <r>   119.0853     0.0000     0.0000 </r>
       <r>   119.6270     0.0000     0.0000 </r>
      </set>
      <set comment="spin 4">
       <r>   -42.8891     0.0000     0.0000 </r>
       <r>   -42.3474     0.0000     0.0000 </r>
       <r>   -41.8056     0.0000     0.0000 </r>
       <r>   -41.2639     0.0000     0.0000 </r>
       <r>   -40.7222     0.0000     0.0000 </r>
       <r>   -40.1805     0.0000     0.0000 </r>
       <r>   -39.6388     0.0000     0.0000 </r>
       <r>   -39.0970     0.0000     0.0000 </r>
       <r>   -38.5553     0.0000     0.0000 </r>
       <r>   -38.0136     0.0000     0.0000 </r>
       <r>   -37.4719     0.0000     0.0000 </r>
       <r>   -36.9302     0.0000     0.0000 </r>
       <r>   -36.3884     0.0000     0.0000 </r>
       <r>   -35.8467     0.0000     0.0000 </r>
       <r>   -35.3050     0.0000     0.0000 </r>
       <r>   -34.7633     0.0000     0.0000 </r>
       <r>   -34.2216     0.0000     0.0000 </r>
       <r>   -33.6798     0.0000     0.0000 </r>
       <r>   -33.1381     0.0000     0.0000 </r>
       <r>   -32.5964     0.0000     0.0000 </r>
       <r>   -32.0547     0.0000     0.0000 </r>
       <r>   -31.5130     0.0000     0.0000 </r>
       <r>   -30.9712     0.0000     0.0000 </r>
       <r>   -30.4295     0.0000     0.0000 </r>
       <r>   -29.8878     0.0000     0.0000 </r>
       <r>   -29.3461     0.0000     0.0000 </r>
       <r>   -28.8044     0.0000     0.0000 </r>
       <r>   -28.2626     0.0000     0.0000 </r>
       <r>   -27.7209     0.0000     0.0000 </r>
       <r>   -27.1792     0.0000     0.0000 </r>
       <r>   -26.6375     0.0000     0.0000 </r>
       <r>   -26.0958     0.0000     0.0000 </r>
       <r>   -25.5540     0.0000     0.0000 </r>
       <r>   -25.0123     0.0000     0.0000 </r>
       <r>   -24.4706     0.0000     0.0000 </r>
       <r>   -23.9289     0.0000     0.0000 </r>
       <r>   -23.3872     0.0000     0.0000 </r>
       <r>   -22.8454     0.0000     0.0000 </r>
       <r>   -22.3037     0.0000     0.0000 </r>
       <r>   -21.7620     0.0000     0.0000 </r>
       <r>   -21.2203     0.0000     0.0000 </r>
       <r>   -20.6786     0.0000     0.0000 </r>
       <r>   -20.1368     0.0000     0.0000 </r>
       <r>   -19.5951     0.0000     0.0000 </r>
       <r>   -19.0534     0.0000     0.0000 </r>
       <r>   -18.5117     0.0000     0.0000 </r>
       <r>   -17.9700     0.0000     0.0000 </r>
       <r>   -17.4282     0.0000     0.0000 </r>
       <r>   -16.8865     0.0000     0.0000 </r>
       <r>   -16.3448     0.0000     0.0000 </r>
       <r>   -15.8031     0.0000     0.0000 </r>
       <r>   -15.2613     0.0000     0.0000 </r>
       <r>   -14.7196     0.0000     0.0000 </r>
       <r>   -14.1779     0.0000     0.0000 </r>
       <r>   -13.6362     0.0000     0.0000 </r>
       <r>   -13.0945     0.0000     0.0000 </r>
       <r>   -12.5527     0.0000     0.0000 </r>
       <r>   -12.0110     0.0000     0.0000 </r>
       <r>   -11.4693     0.0000     0.0000 </r>
       <r>   -10.9276     0.0000     0.0000 </r>
       <r>   -10.3859     0.0000     0.0000 </r>
       <r>    -9.8441     0.0000     0.0000 </r>
       <r>    -9.3024     0.0000     0.0000 </r>
       <r>    -8.7607     0.0000     0.0000 </r>
       <r>    -8.2190     0.0000     0.0000 </r>
       <r>    -7.6773     0.0000     0.0000 </r>
       <r>    -7.1355     0.0000     0.0000 </r>
       <r>    -6.5938     0.0000     0.0000 </r>
       <r>    -6.0521     0.0000     0.0000 </r>
       <r>    -5.5104     0.0000     0.0000 </r>
       <r>    -4.9687     0.0000     0.0000 </r>
       <r>    -4.4269     0.0000     0.0000 </r>
       <r>    -3.8852     0.0000     0.0000 </r>
       <r>    -3.3435     0.0000     0.0000 </r>
       <r>    -2.8018     0.0000     0.0000 </r>
       <r>    -2.2601     0.0000     0.0000 </r>
       <r>    -1.7183     0.0000     0.0000 </r>
       <r>    -1.1766     0.0000     0.0000 </r>
       <r>    -0.6349     0.0000     0.0000 </r>
       <r>    -0.0932     0.0000     0.0000 </r>
       <r>     0.4485     0.0000     0.0000 </r>
       <r>     0.9903     0.0000     0.0000 </r>
       <r>     1.5320     0.0000     0.0000 </r>
       <r>     2.0737     0.0000     0.0000 </r>
       <r>     2.6154     0.0000     0.0000 </r>
       <r>     3.1571     0.0000     0.0000 </r>
       <r>     3.6989     0.0000     0.0000 </r>
       <r>     4.2406     0.0000     0.0000 </r>
       <r>     4.7823     0.0000     0.0000 </r>
       <r>     5.3240     0.0000     0.0000 </r>
       <r>     5.8657     0.0000     0.0000 </r>
       <r>     6.4075     0.0000     0.0000 </r>
       <r>     6.9492     0.0000     0.0000 </r>
       <r>     7.4909     0.0000     0.0000 </r>
       <r>     8.0326     0.0000     0.0000 </r>
       <r>     8.5743     0.0000     0.0000 </r>
       <r>     9.1161     0.0000     0.0000 </r>
       <r>     9.6578     0.0000     0.0000 </r>
       <r>    10.1995     0.0000     0.0000 </r>
       <r>    10.7412     0.0000     0.0000 </r>
       <r>    11.2829     0.0000     0.0000 </r>
       <r>    11.8247     0.0000     0.0000 </r>
       <r>    12.3664     0.0000     0.0000 </r>
       <r>    12.9081     0.0000     0.0000 </r>
       <r>    13.4498     0.0000     0.0000 </r>
       <r>    13.9915     0.0000     0.0000 </r>
       <r>    14.5333     0.0000     0.0000 </r>
       <r>    15.0750     0.0000     0.0000 </r>
       <r>    15.6167     0.0000     0.0000 </r>
       <r>    16.1584     0.0000     0.0000 </r>
       <r>    16.7001     0.0000     0.0000 </r>
       <r>    17.2419     0.0000     0.0000 </r>
       <r>    17.7836     0.0000     0.0000 </r>
       <r>    18.3253     0.0000     0.0000 </r>
       <r>    18.8670     0.0000     0.0000 </r>
       <r>    19.4087     0.0000     0.0000 </r>
       <r>    19.9505     0.0000     0.0000 </r>
       <r>    20.4922     0.0000     0.0000 </r>
       <r>    21.0339     0.0000     0.0000 </r>
       <r>    21.5756     0.0000     0.0000 </r>
       <r>    22.1173     0.0000     0.0000 </r>
       <r>    22.6591     0.0000     0.0000 </r>
       <r>    23.2008     0.0000     0.0000 </r>
       <r>    23.7425     0.0000     0.0000 </r>
       <r>    24.2842     0.0000     0.0000 </r>
       <r>    24.8259     0.0000     0.0000 </r>
       <r>    25.3677     0.0000     0.0000 </r>
       <r>    25.9094     0.0000     0.0000 </r>
       <r>    26.4511     0.0000     0.0000 </r>
       <r>    26.9928     0.0000     0.0000 </r>
       <r>    27.5346     0.0000     0.0000 </r>
       <r>    28.0763     0.0000     0.0000 </r>
       <r>    28.6180     0.0000     0.0000 </r>
       <r>    29.1597     0.0000     0.0000 </r>
       <r>    29.7014     0.0000     0.0000 </r>
       <r>    30.2432     0.0000     0.0000 </r>
       <r>    30.7849     0.0000     0.0000 </r>
       <r>    31.3266     0.0000     0.0000 </r>
       <r>    31.8683     0.0000     0.0000 </r>
       <r>    32.4100     0.0000     0.0000 </r>
       <r>    32.9518     0.0000     0.0000 </r>
       <r>    33.4935     0.0000     0.0000 </r>
       <r>    34.0352     0.0000     0.0000 </r>
       <r>    34.5769     0.0000     0.0000 </r>
       <r>    35.1186     0.0000     0.0000 </r>
       <r>    35.6604     0.0000     0.0000 </r>
       <r>    36.2021     0.0000     0.0000 </r>
       <r>    36.7438     0.0000     0.0000 </r>
       <r>    37.2855     0.0000     0.0000 </r>
       <r>    37.8272     0.0000     0.0000 </r>
       <r>    38.3690     0.0000     0.0000 </r>
       <r>    38.9107     0.0000     0.0000 </r>
       <r>    39.4524     0.0000     0.0000 </r>
       <r>    39.9941     0.0000     0.0000 </r>
       <r>    40.5358     0.0000     0.0000 </r>
       <r>    41.0776     0.0000     0.0000 </r>
       <r>    41.6193     0.0000     0.0000 </r>
       <r>    42.1610     0.0000     0.0000 </r>
       <r>    42.7027     0.0000     0.0000 </r>
       <r>    43.2444     0.0000     0.0000 </r>
       <r>    43.7862     0.0000     0.0000 </r>
       <r>    44.3279     0.0000     0.0000 </r>
       <r>    44.8696     0.0000     0.0000 </r>
       <r>    45.4113     0.0000     0.0000 </r>
       <r>    45.9530     0.0000     0.0000 </r>
       <r>    46.4948     0.0000     0.0000 </r>
       <r>    47.0365     0.0000     0.0000 </r>
       <r>    47.5782     0.0000     0.0000 </r>
       <r>    48.1199     0.0000     0.0000 </r>
       <r>    48.6616     0.0000     0.0000 </r>
       <r>    49.2034     0.0000     0.0000 </r>
       <r>    49.7451     0.0000     0.0000 </r>
       <r>    50.2868     0.0000     0.0000 </r>
       <r>    50.8285     0.0000     0.0000 </r>
       <r>    51.3702     0.0000     0.0000 </r>
       <r>    51.9120     0.0000     0.0000 </r>
       <r>    52.4537     0.0000     0.0000 </r>
       <r>    52.9954     0.0000     0.0000 </r>
       <r>    53.5371     0.0000     0.0000 </r>
       <r>    54.0788     0.0000     0.0000 </r>
       <r>    54.6206     0.0000     0.0000 </r>
       <r>    55.1623     0.0000     0.0000 </r>
       <r>    55.7040     0.0000     0.0000 </r>
       <r>    56.2457     0.0000     0.0000 </r>
       <r>    56.7874     0.0000     0.0000 </r>
       <r>    57.3292     0.0000     0.0000 </r>
       <r>    57.8709     0.0000     0.0000 </r>
       <r>    58.4126     0.0000     0.0000 </r>
       <r>    58.9543     0.0000     0.0000 </r>
       <r>    59.4960     0.0000     0.0000 </r>
       <r>    60.0378     0.0000     0.0000 </r>
       <r>    60.5795     0.0000     0.0000 </r>
       <r>    61.1212     0.0000     0.0000 </r>
       <r>    61.6629     0.0000     0.0000 </r>
       <r>    62.2046     0.0000     0.0000 </r>
       <r>    62.7464     0.0000     0.0000 </r>
       <r>    63.2881     0.0000     0.0000 </r>
       <r>    63.8298     0.0000     0.0000 </r>
       <r>    64.3715     0.0000     0.0000 </r>
       <r>    64.9132     0.0000     0.0000 </r>
       <r>    65.4550     0.0000     0.0000 </r>
       <r>    65.9967     0.0000     0.0000 </r>
       <r>    66.5384     0.0000     0.0000 </r>
       <r>    67.0801     0.0000     0.0000 </r>
       <r>    67.6218     0.0000     0.0000 </r>
       <r>    68.1636     0.0000     0.0000 </r>
       <r>    68.7053     0.0000     0.0000 </r>
       <r>    69.2470     0.0000     0.0000 </r>
       <r>    69.7887     0.0000     0.0000 </r>
       <r>    70.3304     0.0000     0.0000 </r>
       <r>    70.8722     0.0000     0.0000 </r>
       <r>    71.4139     0.0000     0.0000 </r>
       <r>    71.9556     0.0000     0.0000 </r>
       <r>    72.4973     0.0000     0.0000 </r>
       <r>    73.0391     0.0000     0.0000 </r>
       <r>    73.5808     0.0000     0.0000 </r>
       <r>    74.1225     0.0000     0.0000 </r>
       <r>    74.6642     0.0000     0.0000 </r>
       <r>    75.2059     0.0000     0.0000 </r>
       <r>    75.7477     0.0000     0.0000 </r>
       <r>    76.2894     0.0000     0.0000 </r>
       <r>    76.8311     0.0000     0.0000 </r>
       <r>    77.3728     0.0000     0.0000 </r>
       <r>    77.9145     0.0000     0.0000 </r>
       <r>    78.4563     0.0000     0.0000 </r>
       <r>    78.9980     0.0000     0.0000 </r>
       <r>    79.5397     0.0000     0.0000 </r>
       <r>    80.0814     0.0000     0.0000 </r>
       <r>    80.6231     0.0000     0.0000 </r>
       <r>    81.1649     0.0000     0.0000 </r>
       <r>    81.7066     0.0000     0.0000 </r>
       <r>    82.2483     0.0000     0.0000 </r>
       <r>    82.7900     0.0000     0.0000 </r>
       <r>    83.3317     0.0000     0.0000 </r>
       <r>    83.8735     0.0000     0.0000 </r>
       <r>    84.4152     0.0000     0.0000 </r>
       <r>    84.9569     0.0000     0.0000 </r>
       <r>    85.4986     0.0000     0.0000 </r>
       <r>    86.0403     0.0000     0.0000 </r>
       <r>    86.5821     0.0000     0.0000 </r>
       <r>    87.1238     0.0000     0.0000 </r>
       <r>    87.6655     0.0000     0.0000 </r>
       <r>    88.2072     0.0000     0.0000 </r>
       <r>    88.7489     0.0000     0.0000 </r>
       <r>    89.2907     0.0000     0.0000 </r>
       <r>    89.8324     0.0000     0.0000 </r>
       <r>    90.3741     0.0000     0.0000 </r>
       <r>    90.9158     0.0000     0.0000 </r>
       <r>    91.4575     0.0000     0.0000 </r>
       <r>    91.9993     0.0000     0.0000 </r>
       <r>    92.5410     0.0000     0.0000 </r>
       <r>    93.0827     0.0000     0.0000 </r>
       <r>    93.6244     0.0000     0.0000 </r>
       <r>    94.1661     0.0000     0.0000 </r>
       <r>    94.7079     0.0000     0.0000 </r>
       <r>    95.2496     0.0000     0.0000 </r>
       <r>    95.7913     0.0000     0.0000 </r>
       <r>    96.3330     0.0000     0.0000 </r>
       <r>    96.8747     0.0000     0.0000 </r>
       <r>    97.4165     0.0000     0.0000 </r>
       <r>    97.9582     0.0000     0.0000 </r>
       <r>    98.4999     0.0000     0.0000 </r>
       <r>    99.0416     0.0000     0.0000 </r>
       <r>    99.5833     0.0000     0.0000 </r>
       <r>   100.1251     0.0000     0.0000 </r>
       <r>   100.6668     0.0000     0.0000 </r>
       <r>   101.2085     0.0000     0.0000 </r>
       <r>   101.7502     0.0000     0.0000 </r>
       <r>   102.2919     0.0000     0.0000 </r>
       <r>   102.8337     0.0000     0.0000 </r>
       <r>   103.3754     0.0000     0.0000 </r>
       <r>   103.9171     0.0000     0.0000 </r>
       <r>   104.4588     0.0000     0.0000 </r>
       <r>   105.0005     0.0000     0.0000 </r>
       <r>   105.5423     0.0000     0.0000 </r>
       <r>   106.0840     0.0000     0.0000 </r>
       <r>   106.6257     0.0000     0.0000 </r>
       <r>   107.1674     0.0000     0.0000 </r>
       <r>   107.7091     0.0000     0.0000 </r>
       <r>   108.2509     0.0000     0.0000 </r>
       <r>   108.7926     0.0000     0.0000 </r>
       <r>   109.3343     0.0000     0.0000 </r>
       <r>   109.8760     0.0000     0.0000 </r>
       <r>   110.4177     0.0000     0.0000 </r>
       <r>   110.9595     0.0000     0.0000 </r>
       <r>   111.5012     0.0000     0.0000 </r>
       <r>   112.0429     0.0000     0.0000 </r>
       <r>   112.5846     0.0000     0.0000 </r>
       <r>   113.1263     0.0000     0.0000 </r>
       <r>   113.6681     0.0000     0.0000 </r>
       <r>   114.2098     0.0000     0.0000 </r>
       <r>   114.7515     0.0000     0.0000 </r>
       <r>   115.2932     0.0000     0.0000 </r>
       <r>   115.8349     0.0000     0.0000 </r>
       <r>   116.3767     0.0000     0.0000 </r>
       <r>   116.9184     0.0000     0.0000 </r>
       <r>   117.4601     0.0000     0.0000 </r>
       <r>   118.0018     0.0000     0.0000 </r>
       <r>   118.5436     0.0000     0.0000 </r>
       <r>   119.0853     0.0000     0.0000 </r>
       <r>   119.6270     0.0000     0.0000 </r>
      </set>
     </set>
    </array>
   </total>
  </dos>
 </calculation>
 <structure name="finalpos" >
  <crystal>
   <varray name="basis" >
    <v>       3.15663441       0.00000000       0.00000000 </v>
    <v>       1.57831721       2.73372559       0.00000000 </v>
    <v>       1.57831721       0.91124186       2.57738121 </v>
   </varray>
   <i name="volume">     22.24118194 </i>
   <varray name="rec_basis" >
    <v>       0.31679310      -0.18290058      -0.12933024 </v>
    <v>       0.00000000       0.36580116      -0.12933024 </v>
    <v>       0.00000000       0.00000000       0.38799072 </v>
   </varray>
  </crystal>
  <varray name="positions" >
   <v>       0.00000000       0.00000000       0.00000000 </v>
  </varray>
  <varray name="velocities" >
   <v>       0.00000000       0.00000000       0.00000000 </v>
  </varray>
 </structure>
</modeling>
