Og_FCC                                  
           1
     4.354592    0.000000    0.000000
     2.177296    3.771187   -0.000000
     2.177296    1.257062    3.555510
   Og
   1
Direct configuration=     1
   0.00000000  0.00000000  0.00000000
Og_FCC                                  
           1
     4.441684    0.000000    0.000000
     2.220842    3.771187   -0.000000
     2.220842    1.257062    3.555510
   Og
   1
Direct configuration=     2
   0.00000000  0.00000000  0.00000000
Og_FCC                                  
           1
     4.267500    0.000000    0.000000
     2.133750    3.771187   -0.000000
     2.133750    1.257062    3.555510
   Og
   1
Direct configuration=     3
   0.00000000  0.00000000  0.00000000
Og_FCC                                  
           1
     4.354592    0.000000    0.000000
     2.177296    3.846611   -0.000000
     2.177296    1.282204    3.555510
   Og
   1
Direct configuration=     4
   0.00000000  0.00000000  0.00000000
Og_FCC                                  
           1
     4.354592    0.000000    0.000000
     2.177296    3.695764   -0.000000
     2.177296    1.231921    3.555510
   Og
   1
Direct configuration=     5
   0.00000000  0.00000000  0.00000000
Og_FCC                                  
           1
     4.354592    0.000000    0.000000
     2.177296    3.771187   -0.000000
     2.177296    1.257062    3.626620
   Og
   1
Direct configuration=     6
   0.00000000  0.00000000  0.00000000
Og_FCC                                  
           1
     4.354592    0.000000    0.000000
     2.177296    3.771187   -0.000000
     2.177296    1.257062    3.484399
   Og
   1
Direct configuration=     7
   0.00000000  0.00000000  0.00000000
Og_FCC                                  
           1
     4.354592    0.087092    0.000000
     2.177296    3.814733   -0.000000
     2.177296    1.300608    3.555510
   Og
   1
Direct configuration=     8
   0.00000000  0.00000000  0.00000000
Og_FCC                                  
           1
     4.354592   -0.087092    0.000000
     2.177296    3.727642   -0.000000
     2.177296    1.213517    3.555510
   Og
   1
Direct configuration=     9
   0.00000000  0.00000000  0.00000000
Og_FCC                                  
           1
     4.354592    0.000000    0.000000
     2.177296    3.771187    0.075424
     2.177296    1.257062    3.580651
   Og
   1
Direct configuration=    10
   0.00000000  0.00000000  0.00000000
Og_FCC                                  
           1
     4.354592    0.000000    0.000000
     2.177296    3.771187   -0.075424
     2.177296    1.257062    3.530368
   Og
   1
Direct configuration=    11
   0.00000000  0.00000000  0.00000000
Og_FCC                                  
           1
     4.354592    0.000000    0.000000
     2.177296    3.771187   -0.000000
     2.248406    1.257062    3.555510
   Og
   1
Direct configuration=    12
   0.00000000  0.00000000  0.00000000
Og_FCC                                  
           1
     4.354592    0.000000    0.000000
     2.177296    3.771187   -0.000000
     2.106186    1.257062    3.555510
   Og
   1
Direct configuration=    13
   0.00000000  0.00000000  0.00000000
Og_FCC                                  
           1
     4.354592    0.000000    0.000000
     2.177296    3.771187   -0.000000
     2.177296    1.257062    3.555510
   Og
   1
Direct configuration=    14
   0.00459285  0.00000000 -0.00000000
Og_FCC                                  
           1
     4.354592    0.000000    0.000000
     2.177296    3.771187   -0.000000
     2.177296    1.257062    3.555510
   Og
   1
Direct configuration=    15
  -0.00459285 -0.00000000  0.00000000
Og_FCC                                  
           1
     4.354592    0.000000    0.000000
     2.177296    3.771187   -0.000000
     2.177296    1.257062    3.555510
   Og
   1
Direct configuration=    16
  -0.00265168  0.00530337  0.00000000
Og_FCC                                  
           1
     4.354592    0.000000    0.000000
     2.177296    3.771187   -0.000000
     2.177296    1.257062    3.555510
   Og
   1
Direct configuration=    17
   0.00265168 -0.00530337 -0.00000000
Og_FCC                                  
           1
     4.354592    0.000000    0.000000
     2.177296    3.771187   -0.000000
     2.177296    1.257062    3.555510
   Og
   1
Direct configuration=    18
  -0.00187502 -0.00187502  0.00562507
Og_FCC                                  
           1
     4.354592    0.000000    0.000000
     2.177296    3.771187   -0.000000
     2.177296    1.257062    3.555510
   Og
   1
Direct configuration=    19
   0.00187502  0.00187502 -0.00562507
