   1   1   0   0
  0.6083477E+02  0.4414576E-09  0.4414576E-09  0.4414576E-09  0.1000000E-15
  1.000000000000000E-004
  CAR 
 Og_FCC                                  
     61.18154355   -208.40694871  301      0.29947571      1.00000000
   -208.407  0.0000E+00  0.0000E+00
   -207.508  0.0000E+00  0.0000E+00
   -206.610  0.0000E+00  0.0000E+00
   -205.711  0.0000E+00  0.0000E+00
   -204.812  0.0000E+00  0.0000E+00
   -203.914  0.0000E+00  0.0000E+00
   -203.015  0.0000E+00  0.0000E+00
   -202.117  0.0000E+00  0.0000E+00
   -201.218  0.0000E+00  0.0000E+00
   -200.319  0.0000E+00  0.0000E+00
   -199.421  0.0000E+00  0.0000E+00
   -198.522  0.0000E+00  0.0000E+00
   -197.623  0.0000E+00  0.0000E+00
   -196.725  0.0000E+00  0.0000E+00
   -195.826  0.0000E+00  0.2000E+01
   -194.928  0.0000E+00  0.2000E+01
   -194.029  0.0000E+00  0.2000E+01
   -193.130  0.0000E+00  0.2000E+01
   -192.232  0.0000E+00  0.2000E+01
   -191.333  0.0000E+00  0.2000E+01
   -190.434  0.0000E+00  0.2000E+01
   -189.536  0.0000E+00  0.2000E+01
   -188.637  0.0000E+00  0.2000E+01
   -187.738  0.0000E+00  0.2000E+01
   -186.840  0.0000E+00  0.2000E+01
   -185.941  0.0000E+00  0.2000E+01
   -185.043  0.0000E+00  0.2000E+01
   -184.144  0.0000E+00  0.2000E+01
   -183.245  0.0000E+00  0.2000E+01
   -182.347  0.0000E+00  0.2000E+01
   -181.448  0.0000E+00  0.2000E+01
   -180.549  0.0000E+00  0.2000E+01
   -179.651  0.0000E+00  0.2000E+01
   -178.752  0.0000E+00  0.2000E+01
   -177.854  0.0000E+00  0.2000E+01
   -176.955  0.0000E+00  0.2000E+01
   -176.056  0.0000E+00  0.2000E+01
   -175.158  0.0000E+00  0.2000E+01
   -174.259  0.0000E+00  0.2000E+01
   -173.360  0.0000E+00  0.2000E+01
   -172.462  0.0000E+00  0.2000E+01
   -171.563  0.0000E+00  0.2000E+01
   -170.665  0.0000E+00  0.2000E+01
   -169.766  0.0000E+00  0.2000E+01
   -168.867  0.0000E+00  0.2000E+01
   -167.969  0.0000E+00  0.2000E+01
   -167.070  0.0000E+00  0.2000E+01
   -166.171  0.0000E+00  0.2000E+01
   -165.273  0.0000E+00  0.2000E+01
   -164.374  0.0000E+00  0.2000E+01
   -163.476  0.0000E+00  0.2000E+01
   -162.577  0.0000E+00  0.2000E+01
   -161.678  0.0000E+00  0.2000E+01
   -160.780  0.0000E+00  0.2000E+01
   -159.881  0.0000E+00  0.2000E+01
   -158.982  0.0000E+00  0.2000E+01
   -158.084  0.0000E+00  0.2000E+01
   -157.185  0.0000E+00  0.2000E+01
   -156.287  0.0000E+00  0.2000E+01
   -155.388  0.0000E+00  0.2000E+01
   -154.489  0.0000E+00  0.2000E+01
   -153.591  0.0000E+00  0.2000E+01
   -152.692  0.0000E+00  0.2000E+01
   -151.793  0.0000E+00  0.2000E+01
   -150.895  0.0000E+00  0.2000E+01
   -149.996  0.0000E+00  0.2000E+01
   -149.097  0.0000E+00  0.2000E+01
   -148.199  0.0000E+00  0.2000E+01
   -147.300  0.0000E+00  0.2000E+01
   -146.402  0.0000E+00  0.2000E+01
   -145.503  0.0000E+00  0.2000E+01
   -144.604  0.0000E+00  0.2000E+01
   -143.706  0.0000E+00  0.2000E+01
   -142.807  0.0000E+00  0.2000E+01
   -141.908  0.1290E-12  0.2000E+01
   -141.010  0.0000E+00  0.4000E+01
   -140.111  0.0000E+00  0.4000E+01
   -139.213  0.0000E+00  0.4000E+01
   -138.314  0.0000E+00  0.4000E+01
   -137.415  0.0000E+00  0.4000E+01
   -136.517  0.0000E+00  0.4000E+01
   -135.618  0.0000E+00  0.4000E+01
   -134.719  0.0000E+00  0.4000E+01
   -133.821  0.0000E+00  0.4000E+01
   -132.922  0.0000E+00  0.4000E+01
   -132.024  0.0000E+00  0.4000E+01
   -131.125  0.0000E+00  0.4000E+01
   -130.226  0.0000E+00  0.4000E+01
   -129.328  0.0000E+00  0.4000E+01
   -128.429  0.0000E+00  0.4000E+01
   -127.530  0.0000E+00  0.4000E+01
   -126.632  0.0000E+00  0.4000E+01
   -125.733  0.0000E+00  0.4000E+01
   -124.835  0.0000E+00  0.4000E+01
   -123.936  0.0000E+00  0.4000E+01
   -123.037  0.0000E+00  0.4000E+01
   -122.139  0.0000E+00  0.4000E+01
   -121.240  0.0000E+00  0.4000E+01
   -120.341  0.0000E+00  0.4000E+01
   -119.443  0.0000E+00  0.4000E+01
   -118.544  0.0000E+00  0.4000E+01
   -117.645  0.0000E+00  0.4000E+01
   -116.747  0.0000E+00  0.4000E+01
   -115.848  0.0000E+00  0.4000E+01
   -114.950  0.0000E+00  0.4000E+01
   -114.051  0.0000E+00  0.4000E+01
   -113.152  0.0000E+00  0.8000E+01
   -112.254  0.0000E+00  0.8000E+01
   -111.355  0.0000E+00  0.8000E+01
   -110.456  0.0000E+00  0.8000E+01
   -109.558  0.0000E+00  0.8000E+01
   -108.659  0.0000E+00  0.8000E+01
   -107.761  0.0000E+00  0.8000E+01
   -106.862  0.0000E+00  0.8000E+01
   -105.963  0.0000E+00  0.8000E+01
   -105.065  0.0000E+00  0.8000E+01
   -104.166  0.0000E+00  0.8000E+01
   -103.267  0.0000E+00  0.8000E+01
   -102.369  0.0000E+00  0.8000E+01
   -101.470  0.0000E+00  0.8000E+01
   -100.572  0.0000E+00  0.8000E+01
    -99.673  0.0000E+00  0.8000E+01
    -98.774  0.0000E+00  0.8000E+01
    -97.876  0.0000E+00  0.8000E+01
    -96.977  0.0000E+00  0.8000E+01
    -96.078  0.0000E+00  0.8000E+01
    -95.180  0.0000E+00  0.8000E+01
    -94.281  0.0000E+00  0.8000E+01
    -93.383  0.0000E+00  0.8000E+01
    -92.484  0.0000E+00  0.8000E+01
    -91.585  0.0000E+00  0.8000E+01
    -90.687  0.0000E+00  0.8000E+01
    -89.788  0.0000E+00  0.8000E+01
    -88.889  0.0000E+00  0.8000E+01
    -87.991  0.0000E+00  0.8000E+01
    -87.092  0.0000E+00  0.8000E+01
    -86.193  0.0000E+00  0.8000E+01
    -85.295  0.0000E+00  0.8000E+01
    -84.396  0.0000E+00  0.8000E+01
    -83.498  0.0000E+00  0.8000E+01
    -82.599  0.0000E+00  0.8000E+01
    -81.700  0.0000E+00  0.8000E+01
    -80.802  0.0000E+00  0.8000E+01
    -79.903  0.0000E+00  0.8000E+01
    -79.004  0.0000E+00  0.8000E+01
    -78.106  0.0000E+00  0.8000E+01
    -77.207  0.0000E+00  0.8000E+01
    -76.309  0.0000E+00  0.8000E+01
    -75.410  0.0000E+00  0.8000E+01
    -74.511  0.0000E+00  0.8000E+01
    -73.613  0.0000E+00  0.8000E+01
    -72.714  0.0000E+00  0.8000E+01
    -71.815  0.0000E+00  0.8000E+01
    -70.917  0.0000E+00  0.8000E+01
    -70.018  0.0000E+00  0.8000E+01
    -69.120  0.0000E+00  0.8000E+01
    -68.221  0.0000E+00  0.8000E+01
    -67.322  0.0000E+00  0.8000E+01
    -66.424  0.0000E+00  0.8000E+01
    -65.525  0.0000E+00  0.8000E+01
    -64.626  0.0000E+00  0.8000E+01
    -63.728  0.0000E+00  0.8000E+01
    -62.829  0.0000E+00  0.8000E+01
    -61.931  0.0000E+00  0.8000E+01
    -61.032  0.0000E+00  0.8000E+01
    -60.133  0.0000E+00  0.8000E+01
    -59.235  0.0000E+00  0.8000E+01
    -58.336  0.0000E+00  0.8000E+01
    -57.437  0.0000E+00  0.8000E+01
    -56.539  0.0000E+00  0.8000E+01
    -55.640  0.0000E+00  0.8000E+01
    -54.742  0.0000E+00  0.8000E+01
    -53.843  0.0000E+00  0.8000E+01
    -52.944  0.0000E+00  0.8000E+01
    -52.046  0.0000E+00  0.8000E+01
    -51.147  0.0000E+00  0.8000E+01
    -50.248  0.0000E+00  0.8000E+01
    -49.350  0.0000E+00  0.8000E+01
    -48.451  0.0000E+00  0.8000E+01
    -47.552  0.0000E+00  0.8000E+01
    -46.654  0.0000E+00  0.8000E+01
    -45.755  0.0000E+00  0.8000E+01
    -44.857  0.0000E+00  0.8000E+01
    -43.958  0.0000E+00  0.8000E+01
    -43.059  0.0000E+00  0.1200E+02
    -42.161  0.0000E+00  0.1200E+02
    -41.262  0.0000E+00  0.1200E+02
    -40.363  0.0000E+00  0.1200E+02
    -39.465  0.0000E+00  0.1200E+02
    -38.566  0.0000E+00  0.1800E+02
    -37.668  0.0000E+00  0.1800E+02
    -36.769  0.0000E+00  0.1800E+02
    -35.870  0.0000E+00  0.1800E+02
    -34.972  0.0000E+00  0.1800E+02
    -34.073  0.0000E+00  0.1800E+02
    -33.174  0.0000E+00  0.1800E+02
    -32.276  0.0000E+00  0.1800E+02
    -31.377  0.0000E+00  0.1800E+02
    -30.479  0.0000E+00  0.1800E+02
    -29.580  0.0000E+00  0.1800E+02
    -28.681  0.0000E+00  0.1800E+02
    -27.783  0.0000E+00  0.1800E+02
    -26.884  0.0000E+00  0.1800E+02
    -25.985  0.0000E+00  0.1800E+02
    -25.087  0.0000E+00  0.1800E+02
    -24.188  0.0000E+00  0.1800E+02
    -23.290  0.0000E+00  0.1800E+02
    -22.391  0.0000E+00  0.1800E+02
    -21.492  0.0000E+00  0.1800E+02
    -20.594  0.0000E+00  0.1800E+02
    -19.695  0.0000E+00  0.1800E+02
    -18.796  0.0000E+00  0.1800E+02
    -17.898  0.0000E+00  0.1800E+02
    -16.999  0.0000E+00  0.1800E+02
    -16.100  0.0000E+00  0.2000E+02
    -15.202  0.0000E+00  0.2000E+02
    -14.303  0.0000E+00  0.2000E+02
    -13.405  0.0000E+00  0.2000E+02
    -12.506  0.0000E+00  0.2000E+02
    -11.607  0.0000E+00  0.2000E+02
    -10.709  0.0000E+00  0.2000E+02
     -9.810  0.0000E+00  0.2000E+02
     -8.911  0.0000E+00  0.2000E+02
     -8.013  0.0000E+00  0.2000E+02
     -7.114  0.0000E+00  0.2000E+02
     -6.216  0.0000E+00  0.2000E+02
     -5.317  0.0000E+00  0.2000E+02
     -4.418  0.1259E+01  0.2113E+02
     -3.520  0.0000E+00  0.2200E+02
     -2.621  0.0000E+00  0.2200E+02
     -1.722  0.7833E+00  0.2340E+02
     -0.824  0.5249E+00  0.2525E+02
      0.075  0.0000E+00  0.2600E+02
      0.973  0.0000E+00  0.2600E+02
      1.872  0.0000E+00  0.2600E+02
      2.771  0.0000E+00  0.2600E+02
      3.669  0.0000E+00  0.2601E+02
      4.568  0.9861E-07  0.2608E+02
      5.467  0.1312E+00  0.2640E+02
      6.365  0.2197E+00  0.2778E+02
      7.264  0.2519E+00  0.2887E+02
      8.162  0.0000E+00  0.3032E+02
      9.061  0.5318E+00  0.3214E+02
      9.960  0.1061E+00  0.3360E+02
     10.858  0.3326E+00  0.3472E+02
     11.757  0.1865E+00  0.3620E+02
     12.656  0.2883E+00  0.3766E+02
     13.554  0.2287E+00  0.3912E+02
     14.453  0.4092E+00  0.4169E+02
     15.351  0.1031E-01  0.4334E+02
     16.250  0.3295E+00  0.4445E+02
     17.149  0.1111E+01  0.4817E+02
     18.047  0.4723E-01  0.5133E+02
     18.946  0.5167E+00  0.5292E+02
     19.845  0.1256E+00  0.5414E+02
     20.743  0.4086E+00  0.5602E+02
     21.642  0.3400E+00  0.5838E+02
     22.541  0.4954E+00  0.6096E+02
     23.439  0.2869E+00  0.6364E+02
     24.338  0.8243E-01  0.6575E+02
     25.236  0.1964E+00  0.6684E+02
     26.135  0.4901E+00  0.6930E+02
     27.034  0.2682E+00  0.7119E+02
     27.932  0.2048E+00  0.7313E+02
     28.831  0.4363E+00  0.7581E+02
     29.730  0.6972E+00  0.7917E+02
     30.628  0.9950E-05  0.8041E+02
     31.527  0.7408E+00  0.8230E+02
     32.425  0.7777E+00  0.8475E+02
     33.324  0.2780E+00  0.8764E+02
     34.223  0.1060E+01  0.9080E+02
     35.121  0.5468E+00  0.9233E+02
     36.020  0.7735E+00  0.9483E+02
     36.919  0.6156E+00  0.9691E+02
     37.817  0.3501E+00  0.9893E+02
     38.716  0.2703E+00  0.1015E+03
     39.614  0.3709E+00  0.1043E+03
     40.513  0.9885E-01  0.1062E+03
     41.412  0.6916E+00  0.1090E+03
     42.310  0.4209E+00  0.1115E+03
     43.209  0.7006E+00  0.1149E+03
     44.108  0.3295E+00  0.1169E+03
     45.006  0.7102E+00  0.1199E+03
     45.905  0.5915E+00  0.1229E+03
     46.803  0.8242E+00  0.1253E+03
     47.702  0.2875E+00  0.1270E+03
     48.601  0.2473E+00  0.1279E+03
     49.499  0.0000E+00  0.1280E+03
     50.398  0.0000E+00  0.1280E+03
     51.297  0.0000E+00  0.1280E+03
     52.195  0.0000E+00  0.1280E+03
     53.094  0.0000E+00  0.1280E+03
     53.993  0.0000E+00  0.1280E+03
     54.891  0.0000E+00  0.1280E+03
     55.790  0.0000E+00  0.1280E+03
     56.688  0.0000E+00  0.1280E+03
     57.587  0.0000E+00  0.1280E+03
     58.486  0.0000E+00  0.1280E+03
     59.384  0.0000E+00  0.1280E+03
     60.283  0.0000E+00  0.1280E+03
     61.182  0.0000E+00  0.1280E+03
