       N       E                     dE             d eps       ncg     rms          rms(c)
DIA:   1    -0.460661166126E+01   -0.46066E+01    0.00000E+00     0   0.000E+00
DIA:   2    -0.460661166124E+01    0.18190E-10    0.00000E+00     0   0.000E+00
DIA:   3    -0.460661166126E+01   -0.14552E-10    0.00000E+00     0   0.000E+00
DIA:   4    -0.460661166125E+01    0.72760E-11    0.00000E+00     0   0.000E+00
DIA:   5    -0.460661166124E+01    0.72760E-11    0.00000E+00     0   0.000E+00    0.782E-06
DIA:   6    -0.460661166148E+01   -0.23374E-09    0.00000E+00     0   0.000E+00
   1 F= -.48306020E+01 E0= -.48306020E+01  d E =0.000000E+00  mag=     0.0000    -0.0000    -0.0000
 imaginary and real dielectric function
