   1   1   0   0
  0.4928368E+02  0.4115343E-09  0.4115343E-09  0.4115343E-09  0.1000000E-15
  1.000000000000000E-004
  CAR 
 Og_FCC                                  
     21.02779816    -22.89777440  301     -4.86998733      1.00000000
    -22.898  0.0000E+00  0.0000E+00
    -22.751  0.0000E+00  0.0000E+00
    -22.605  0.0000E+00  0.0000E+00
    -22.459  0.0000E+00  0.0000E+00
    -22.312  0.0000E+00  0.0000E+00
    -22.166  0.0000E+00  0.0000E+00
    -22.019  0.0000E+00  0.0000E+00
    -21.873  0.0000E+00  0.0000E+00
    -21.726  0.0000E+00  0.0000E+00
    -21.580  0.0000E+00  0.0000E+00
    -21.434  0.0000E+00  0.0000E+00
    -21.287  0.0000E+00  0.0000E+00
    -21.141  0.3873E-12  0.5671E-13
    -20.994  0.3313E-03  0.4851E-04
    -20.848  0.8412E+00  0.1232E+00
    -20.701  0.1034E+02  0.1637E+01
    -20.555  0.2482E+01  0.2000E+01
    -20.409  0.3041E-04  0.2000E+01
    -20.262  0.0000E+00  0.2000E+01
    -20.116  0.0000E+00  0.2000E+01
    -19.969  0.0000E+00  0.2000E+01
    -19.823  0.0000E+00  0.2000E+01
    -19.677  0.0000E+00  0.2000E+01
    -19.530  0.0000E+00  0.2000E+01
    -19.384  0.0000E+00  0.2000E+01
    -19.237  0.0000E+00  0.2000E+01
    -19.091  0.0000E+00  0.2000E+01
    -18.944  0.0000E+00  0.2000E+01
    -18.798  0.0000E+00  0.2000E+01
    -18.652  0.0000E+00  0.2000E+01
    -18.505  0.0000E+00  0.2000E+01
    -18.359  0.0000E+00  0.2000E+01
    -18.212  0.0000E+00  0.2000E+01
    -18.066  0.0000E+00  0.2000E+01
    -17.920  0.0000E+00  0.2000E+01
    -17.773  0.0000E+00  0.2000E+01
    -17.627  0.0000E+00  0.2000E+01
    -17.480  0.0000E+00  0.2000E+01
    -17.334  0.0000E+00  0.2000E+01
    -17.187  0.0000E+00  0.2000E+01
    -17.041  0.0000E+00  0.2000E+01
    -16.895  0.0000E+00  0.2000E+01
    -16.748  0.0000E+00  0.2000E+01
    -16.602  0.0000E+00  0.2000E+01
    -16.455  0.0000E+00  0.2000E+01
    -16.309  0.0000E+00  0.2000E+01
    -16.163  0.0000E+00  0.2000E+01
    -16.016  0.0000E+00  0.2000E+01
    -15.870  0.0000E+00  0.2000E+01
    -15.723  0.0000E+00  0.2000E+01
    -15.577  0.0000E+00  0.2000E+01
    -15.430  0.0000E+00  0.2000E+01
    -15.284  0.0000E+00  0.2000E+01
    -15.138  0.0000E+00  0.2000E+01
    -14.991  0.0000E+00  0.2000E+01
    -14.845  0.0000E+00  0.2000E+01
    -14.698  0.0000E+00  0.2000E+01
    -14.552  0.0000E+00  0.2000E+01
    -14.405  0.0000E+00  0.2000E+01
    -14.259  0.0000E+00  0.2000E+01
    -14.113  0.0000E+00  0.2000E+01
    -13.966  0.0000E+00  0.2000E+01
    -13.820  0.0000E+00  0.2000E+01
    -13.673  0.0000E+00  0.2000E+01
    -13.527  0.0000E+00  0.2000E+01
    -13.381  0.0000E+00  0.2000E+01
    -13.234  0.0000E+00  0.2000E+01
    -13.088  0.0000E+00  0.2000E+01
    -12.941  0.0000E+00  0.2000E+01
    -12.795  0.0000E+00  0.2000E+01
    -12.648  0.0000E+00  0.2000E+01
    -12.502  0.0000E+00  0.2000E+01
    -12.356  0.0000E+00  0.2000E+01
    -12.209  0.0000E+00  0.2000E+01
    -12.063  0.0000E+00  0.2000E+01
    -11.916  0.0000E+00  0.2000E+01
    -11.770  0.0000E+00  0.2000E+01
    -11.624  0.0000E+00  0.2000E+01
    -11.477  0.0000E+00  0.2000E+01
    -11.331  0.0000E+00  0.2000E+01
    -11.184  0.0000E+00  0.2000E+01
    -11.038  0.0000E+00  0.2000E+01
    -10.891  0.0000E+00  0.2000E+01
    -10.745  0.0000E+00  0.2000E+01
    -10.599  0.0000E+00  0.2000E+01
    -10.452  0.0000E+00  0.2000E+01
    -10.306  0.0000E+00  0.2000E+01
    -10.159  0.0000E+00  0.2000E+01
    -10.013  0.0000E+00  0.2000E+01
     -9.867  0.0000E+00  0.2000E+01
     -9.720  0.0000E+00  0.2000E+01
     -9.574  0.0000E+00  0.2000E+01
     -9.427  0.0000E+00  0.2000E+01
     -9.281  0.0000E+00  0.2000E+01
     -9.134  0.0000E+00  0.2000E+01
     -8.988  0.0000E+00  0.2000E+01
     -8.842  0.0000E+00  0.2000E+01
     -8.695  0.0000E+00  0.2000E+01
     -8.549  0.0000E+00  0.2000E+01
     -8.402  0.0000E+00  0.2000E+01
     -8.256  0.0000E+00  0.2000E+01
     -8.109  0.0000E+00  0.2000E+01
     -7.963  0.0000E+00  0.2000E+01
     -7.817  0.0000E+00  0.2000E+01
     -7.670  0.0000E+00  0.2000E+01
     -7.524  0.0000E+00  0.2000E+01
     -7.377  0.0000E+00  0.2000E+01
     -7.231  0.0000E+00  0.2000E+01
     -7.085  0.0000E+00  0.2000E+01
     -6.938  0.7508E-10  0.2000E+01
     -6.792  0.5108E-02  0.2001E+01
     -6.645  0.7676E+00  0.2113E+01
     -6.499  0.7426E+01  0.3200E+01
     -6.352  0.2803E+01  0.3611E+01
     -6.206  0.1529E+01  0.3835E+01
     -6.060  0.3148E+00  0.3881E+01
     -5.913  0.3536E+01  0.4398E+01
     -5.767  0.4889E+01  0.5114E+01
     -5.620  0.3890E+01  0.5684E+01
     -5.474  0.6756E+01  0.6673E+01
     -5.328  0.5250E+01  0.7442E+01
     -5.181  0.3166E+01  0.7905E+01
     -5.035  0.6456E+00  0.8000E+01
     -4.888  0.2226E-02  0.8000E+01
     -4.742  0.1865E-10  0.8000E+01
     -4.595  0.0000E+00  0.8000E+01
     -4.449  0.0000E+00  0.8000E+01
     -4.303  0.0000E+00  0.8000E+01
     -4.156  0.0000E+00  0.8000E+01
     -4.010  0.0000E+00  0.8000E+01
     -3.863  0.0000E+00  0.8000E+01
     -3.717  0.0000E+00  0.8000E+01
     -3.571  0.0000E+00  0.8000E+01
     -3.424  0.0000E+00  0.8000E+01
     -3.278  0.0000E+00  0.8000E+01
     -3.131  0.0000E+00  0.8000E+01
     -2.985  0.0000E+00  0.8000E+01
     -2.838  0.0000E+00  0.8000E+01
     -2.692  0.0000E+00  0.8000E+01
     -2.546  0.0000E+00  0.8000E+01
     -2.399  0.0000E+00  0.8000E+01
     -2.253  0.0000E+00  0.8000E+01
     -2.106  0.0000E+00  0.8000E+01
     -1.960  0.0000E+00  0.8000E+01
     -1.813  0.0000E+00  0.8000E+01
     -1.667  0.0000E+00  0.8000E+01
     -1.521  0.0000E+00  0.8000E+01
     -1.374  0.0000E+00  0.8000E+01
     -1.228  0.0000E+00  0.8000E+01
     -1.081  0.0000E+00  0.8000E+01
     -0.935  0.0000E+00  0.8000E+01
     -0.789  0.0000E+00  0.8000E+01
     -0.642  0.0000E+00  0.8000E+01
     -0.496  0.0000E+00  0.8000E+01
     -0.349  0.0000E+00  0.8000E+01
     -0.203  0.0000E+00  0.8000E+01
     -0.056  0.0000E+00  0.8000E+01
      0.090  0.0000E+00  0.8000E+01
      0.236  0.0000E+00  0.8000E+01
      0.383  0.0000E+00  0.8000E+01
      0.529  0.0000E+00  0.8000E+01
      0.676  0.0000E+00  0.8000E+01
      0.822  0.0000E+00  0.8000E+01
      0.968  0.0000E+00  0.8000E+01
      1.115  0.0000E+00  0.8000E+01
      1.261  0.0000E+00  0.8000E+01
      1.408  0.0000E+00  0.8000E+01
      1.554  0.0000E+00  0.8000E+01
      1.701  0.0000E+00  0.8000E+01
      1.847  0.0000E+00  0.8000E+01
      1.993  0.0000E+00  0.8000E+01
      2.140  0.0000E+00  0.8000E+01
      2.286  0.0000E+00  0.8000E+01
      2.433  0.0000E+00  0.8000E+01
      2.579  0.0000E+00  0.8000E+01
      2.725  0.0000E+00  0.8000E+01
      2.872  0.0000E+00  0.8000E+01
      3.018  0.0000E+00  0.8000E+01
      3.165  0.2896E-07  0.8000E+01
      3.311  0.1400E-01  0.8002E+01
      3.458  0.4922E-01  0.8009E+01
      3.604  0.2344E-04  0.8009E+01
      3.750  0.4381E-14  0.8009E+01
      3.897  0.1060E-03  0.8009E+01
      4.043  0.3693E+00  0.8063E+01
      4.190  0.1628E+00  0.8087E+01
      4.336  0.3517E+00  0.8139E+01
      4.482  0.1481E-02  0.8139E+01
      4.629  0.1963E-11  0.8139E+01
      4.775  0.3924E-07  0.8139E+01
      4.922  0.9041E-01  0.8152E+01
      5.068  0.6673E+00  0.8250E+01
      5.215  0.7321E-02  0.8251E+01
      5.361  0.1265E+01  0.8436E+01
      5.507  0.7527E+00  0.8546E+01
      5.654  0.4159E+00  0.8607E+01
      5.800  0.3590E+00  0.8660E+01
      5.947  0.4778E-01  0.8667E+01
      6.093  0.1227E+01  0.8846E+01
      6.240  0.1888E+01  0.9123E+01
      6.386  0.3499E+01  0.9635E+01
      6.532  0.2146E+00  0.9667E+01
      6.679  0.5656E-07  0.9667E+01
      6.825  0.4593E-01  0.9673E+01
      6.972  0.1189E+01  0.9848E+01
      7.118  0.1230E+01  0.1003E+02
      7.264  0.9224E-01  0.1004E+02
      7.411  0.3627E+01  0.1057E+02
      7.557  0.7698E+00  0.1068E+02
      7.704  0.1663E+01  0.1093E+02
      7.850  0.1358E+01  0.1113E+02
      7.997  0.2420E+01  0.1148E+02
      8.143  0.2035E+01  0.1178E+02
      8.289  0.1172E+01  0.1195E+02
      8.436  0.9380E+00  0.1209E+02
      8.582  0.1576E+01  0.1232E+02
      8.729  0.1525E+01  0.1254E+02
      8.875  0.1214E+01  0.1272E+02
      9.021  0.4700E+01  0.1341E+02
      9.168  0.1321E+01  0.1360E+02
      9.314  0.1360E+00  0.1362E+02
      9.461  0.7892E+00  0.1374E+02
      9.607  0.3401E+00  0.1379E+02
      9.754  0.5034E+00  0.1386E+02
      9.900  0.8287E+00  0.1398E+02
     10.046  0.1553E+01  0.1421E+02
     10.193  0.2550E+01  0.1458E+02
     10.339  0.4742E+00  0.1465E+02
     10.486  0.2798E+01  0.1506E+02
     10.632  0.2000E+01  0.1535E+02
     10.778  0.1109E+01  0.1552E+02
     10.925  0.2274E+01  0.1585E+02
     11.071  0.7631E-01  0.1586E+02
     11.218  0.1133E-07  0.1586E+02
     11.364  0.4615E-08  0.1586E+02
     11.511  0.7156E-01  0.1587E+02
     11.657  0.1963E+01  0.1616E+02
     11.803  0.1762E+01  0.1642E+02
     11.950  0.1009E+01  0.1656E+02
     12.096  0.5904E+00  0.1665E+02
     12.243  0.9929E+00  0.1680E+02
     12.389  0.1523E+01  0.1702E+02
     12.536  0.1224E+01  0.1720E+02
     12.682  0.1250E+01  0.1738E+02
     12.828  0.2670E+01  0.1777E+02
     12.975  0.1327E+01  0.1797E+02
     13.121  0.2389E+01  0.1832E+02
     13.268  0.1898E+00  0.1834E+02
     13.414  0.1339E+01  0.1854E+02
     13.560  0.5953E+00  0.1863E+02
     13.707  0.2264E+00  0.1866E+02
     13.853  0.3705E+00  0.1872E+02
     14.000  0.1047E+01  0.1887E+02
     14.146  0.5431E-01  0.1888E+02
     14.293  0.1464E+01  0.1909E+02
     14.439  0.9196E+00  0.1923E+02
     14.585  0.1458E+01  0.1944E+02
     14.732  0.3995E+01  0.2002E+02
     14.878  0.2956E+01  0.2046E+02
     15.025  0.2679E+01  0.2085E+02
     15.171  0.3593E+01  0.2138E+02
     15.317  0.3856E+01  0.2194E+02
     15.464  0.1954E+01  0.2223E+02
     15.610  0.6654E+00  0.2232E+02
     15.757  0.4656E+00  0.2239E+02
     15.903  0.8360E+00  0.2251E+02
     16.050  0.2922E+00  0.2256E+02
     16.196  0.8805E+00  0.2269E+02
     16.342  0.5309E+00  0.2276E+02
     16.489  0.3877E+00  0.2282E+02
     16.635  0.2571E+00  0.2286E+02
     16.782  0.1356E+00  0.2288E+02
     16.928  0.9188E+00  0.2301E+02
     17.074  0.1048E+01  0.2317E+02
     17.221  0.1193E+01  0.2334E+02
     17.367  0.8990E+00  0.2347E+02
     17.514  0.6117E+00  0.2356E+02
     17.660  0.3104E+00  0.2361E+02
     17.807  0.2609E+00  0.2365E+02
     17.953  0.7207E+00  0.2375E+02
     18.099  0.1063E+01  0.2391E+02
     18.246  0.3999E+00  0.2396E+02
     18.392  0.4695E-01  0.2397E+02
     18.539  0.9427E-02  0.2397E+02
     18.685  0.5763E-01  0.2398E+02
     18.832  0.4697E-01  0.2399E+02
     18.978  0.4940E-01  0.2400E+02
     19.124  0.2962E-01  0.2400E+02
     19.271  0.1329E-03  0.2400E+02
     19.417  0.1943E-12  0.2400E+02
     19.564  0.0000E+00  0.2400E+02
     19.710  0.0000E+00  0.2400E+02
     19.856  0.0000E+00  0.2400E+02
     20.003  0.0000E+00  0.2400E+02
     20.149  0.0000E+00  0.2400E+02
     20.296  0.0000E+00  0.2400E+02
     20.442  0.0000E+00  0.2400E+02
     20.589  0.0000E+00  0.2400E+02
     20.735  0.0000E+00  0.2400E+02
     20.881  0.0000E+00  0.2400E+02
     21.028  0.0000E+00  0.2400E+02
