   1   1   0   0
  0.4557239E+02  0.4009334E-09  0.4009334E-09  0.4009334E-09  0.1000000E-15
  1.000000000000000E-004
  CAR 
 Og_FCC                                  
     17.71529889    -22.40155362  301     -4.34061231      1.00000000
    -22.402  0.0000E+00  0.0000E+00
    -22.268  0.0000E+00  0.0000E+00
    -22.134  0.0000E+00  0.0000E+00
    -22.000  0.0000E+00  0.0000E+00
    -21.867  0.0000E+00  0.0000E+00
    -21.733  0.0000E+00  0.0000E+00
    -21.599  0.0000E+00  0.0000E+00
    -21.465  0.0000E+00  0.0000E+00
    -21.332  0.0000E+00  0.0000E+00
    -21.198  0.0000E+00  0.0000E+00
    -21.064  0.0000E+00  0.0000E+00
    -20.931  0.0000E+00  0.0000E+00
    -20.797  0.2087E-10  0.2791E-11
    -20.663  0.6040E-03  0.8076E-04
    -20.529  0.5092E+00  0.6818E-01
    -20.396  0.4880E+01  0.7207E+00
    -20.262  0.9407E+01  0.1979E+01
    -20.128  0.1599E+00  0.2000E+01
    -19.995  0.6505E-07  0.2000E+01
    -19.861  0.0000E+00  0.2000E+01
    -19.727  0.0000E+00  0.2000E+01
    -19.593  0.0000E+00  0.2000E+01
    -19.460  0.0000E+00  0.2000E+01
    -19.326  0.0000E+00  0.2000E+01
    -19.192  0.0000E+00  0.2000E+01
    -19.058  0.0000E+00  0.2000E+01
    -18.925  0.0000E+00  0.2000E+01
    -18.791  0.0000E+00  0.2000E+01
    -18.657  0.0000E+00  0.2000E+01
    -18.524  0.0000E+00  0.2000E+01
    -18.390  0.0000E+00  0.2000E+01
    -18.256  0.0000E+00  0.2000E+01
    -18.122  0.0000E+00  0.2000E+01
    -17.989  0.0000E+00  0.2000E+01
    -17.855  0.0000E+00  0.2000E+01
    -17.721  0.0000E+00  0.2000E+01
    -17.588  0.0000E+00  0.2000E+01
    -17.454  0.0000E+00  0.2000E+01
    -17.320  0.0000E+00  0.2000E+01
    -17.186  0.0000E+00  0.2000E+01
    -17.053  0.0000E+00  0.2000E+01
    -16.919  0.0000E+00  0.2000E+01
    -16.785  0.0000E+00  0.2000E+01
    -16.651  0.0000E+00  0.2000E+01
    -16.518  0.0000E+00  0.2000E+01
    -16.384  0.0000E+00  0.2000E+01
    -16.250  0.0000E+00  0.2000E+01
    -16.117  0.0000E+00  0.2000E+01
    -15.983  0.0000E+00  0.2000E+01
    -15.849  0.0000E+00  0.2000E+01
    -15.715  0.0000E+00  0.2000E+01
    -15.582  0.0000E+00  0.2000E+01
    -15.448  0.0000E+00  0.2000E+01
    -15.314  0.0000E+00  0.2000E+01
    -15.181  0.0000E+00  0.2000E+01
    -15.047  0.0000E+00  0.2000E+01
    -14.913  0.0000E+00  0.2000E+01
    -14.779  0.0000E+00  0.2000E+01
    -14.646  0.0000E+00  0.2000E+01
    -14.512  0.0000E+00  0.2000E+01
    -14.378  0.0000E+00  0.2000E+01
    -14.244  0.0000E+00  0.2000E+01
    -14.111  0.0000E+00  0.2000E+01
    -13.977  0.0000E+00  0.2000E+01
    -13.843  0.0000E+00  0.2000E+01
    -13.710  0.0000E+00  0.2000E+01
    -13.576  0.0000E+00  0.2000E+01
    -13.442  0.0000E+00  0.2000E+01
    -13.308  0.0000E+00  0.2000E+01
    -13.175  0.0000E+00  0.2000E+01
    -13.041  0.0000E+00  0.2000E+01
    -12.907  0.0000E+00  0.2000E+01
    -12.774  0.0000E+00  0.2000E+01
    -12.640  0.0000E+00  0.2000E+01
    -12.506  0.0000E+00  0.2000E+01
    -12.372  0.0000E+00  0.2000E+01
    -12.239  0.0000E+00  0.2000E+01
    -12.105  0.0000E+00  0.2000E+01
    -11.971  0.0000E+00  0.2000E+01
    -11.837  0.0000E+00  0.2000E+01
    -11.704  0.0000E+00  0.2000E+01
    -11.570  0.0000E+00  0.2000E+01
    -11.436  0.0000E+00  0.2000E+01
    -11.303  0.0000E+00  0.2000E+01
    -11.169  0.0000E+00  0.2000E+01
    -11.035  0.0000E+00  0.2000E+01
    -10.901  0.0000E+00  0.2000E+01
    -10.768  0.0000E+00  0.2000E+01
    -10.634  0.0000E+00  0.2000E+01
    -10.500  0.0000E+00  0.2000E+01
    -10.366  0.0000E+00  0.2000E+01
    -10.233  0.0000E+00  0.2000E+01
    -10.099  0.0000E+00  0.2000E+01
     -9.965  0.0000E+00  0.2000E+01
     -9.832  0.0000E+00  0.2000E+01
     -9.698  0.0000E+00  0.2000E+01
     -9.564  0.0000E+00  0.2000E+01
     -9.430  0.0000E+00  0.2000E+01
     -9.297  0.0000E+00  0.2000E+01
     -9.163  0.0000E+00  0.2000E+01
     -9.029  0.0000E+00  0.2000E+01
     -8.896  0.0000E+00  0.2000E+01
     -8.762  0.0000E+00  0.2000E+01
     -8.628  0.0000E+00  0.2000E+01
     -8.494  0.0000E+00  0.2000E+01
     -8.361  0.0000E+00  0.2000E+01
     -8.227  0.0000E+00  0.2000E+01
     -8.093  0.0000E+00  0.2000E+01
     -7.959  0.0000E+00  0.2000E+01
     -7.826  0.0000E+00  0.2000E+01
     -7.692  0.0000E+00  0.2000E+01
     -7.558  0.0000E+00  0.2000E+01
     -7.425  0.0000E+00  0.2000E+01
     -7.291  0.0000E+00  0.2000E+01
     -7.157  0.0000E+00  0.2000E+01
     -7.023  0.0000E+00  0.2000E+01
     -6.890  0.0000E+00  0.2000E+01
     -6.756  0.4151E-15  0.2000E+01
     -6.622  0.5524E-05  0.2000E+01
     -6.489  0.1035E+00  0.2014E+01
     -6.355  0.1138E+01  0.2166E+01
     -6.221  0.6235E+01  0.3000E+01
     -6.087  0.3912E+01  0.3523E+01
     -5.954  0.1582E+01  0.3734E+01
     -5.820  0.8760E+00  0.3852E+01
     -5.686  0.6516E+00  0.3939E+01
     -5.552  0.3917E+01  0.4462E+01
     -5.419  0.3645E+01  0.4950E+01
     -5.285  0.3965E+01  0.5480E+01
     -5.151  0.5587E+01  0.6227E+01
     -5.018  0.4547E+01  0.6835E+01
     -4.884  0.4987E+01  0.7502E+01
     -4.750  0.2727E+01  0.7867E+01
     -4.616  0.9448E+00  0.7993E+01
     -4.483  0.5273E-01  0.8000E+01
     -4.349  0.7630E-06  0.8000E+01
     -4.215  0.0000E+00  0.8000E+01
     -4.082  0.0000E+00  0.8000E+01
     -3.948  0.0000E+00  0.8000E+01
     -3.814  0.0000E+00  0.8000E+01
     -3.680  0.0000E+00  0.8000E+01
     -3.547  0.0000E+00  0.8000E+01
     -3.413  0.0000E+00  0.8000E+01
     -3.279  0.0000E+00  0.8000E+01
     -3.145  0.0000E+00  0.8000E+01
     -3.012  0.0000E+00  0.8000E+01
     -2.878  0.0000E+00  0.8000E+01
     -2.744  0.0000E+00  0.8000E+01
     -2.611  0.0000E+00  0.8000E+01
     -2.477  0.0000E+00  0.8000E+01
     -2.343  0.0000E+00  0.8000E+01
     -2.209  0.0000E+00  0.8000E+01
     -2.076  0.0000E+00  0.8000E+01
     -1.942  0.0000E+00  0.8000E+01
     -1.808  0.0000E+00  0.8000E+01
     -1.675  0.0000E+00  0.8000E+01
     -1.541  0.0000E+00  0.8000E+01
     -1.407  0.0000E+00  0.8000E+01
     -1.273  0.0000E+00  0.8000E+01
     -1.140  0.0000E+00  0.8000E+01
     -1.006  0.0000E+00  0.8000E+01
     -0.872  0.0000E+00  0.8000E+01
     -0.738  0.0000E+00  0.8000E+01
     -0.605  0.0000E+00  0.8000E+01
     -0.471  0.0000E+00  0.8000E+01
     -0.337  0.0000E+00  0.8000E+01
     -0.204  0.0000E+00  0.8000E+01
     -0.070  0.0000E+00  0.8000E+01
      0.064  0.0000E+00  0.8000E+01
      0.198  0.0000E+00  0.8000E+01
      0.331  0.0000E+00  0.8000E+01
      0.465  0.0000E+00  0.8000E+01
      0.599  0.0000E+00  0.8000E+01
      0.732  0.0000E+00  0.8000E+01
      0.866  0.0000E+00  0.8000E+01
      1.000  0.0000E+00  0.8000E+01
      1.134  0.0000E+00  0.8000E+01
      1.267  0.0000E+00  0.8000E+01
      1.401  0.0000E+00  0.8000E+01
      1.535  0.0000E+00  0.8000E+01
      1.669  0.0000E+00  0.8000E+01
      1.802  0.0000E+00  0.8000E+01
      1.936  0.0000E+00  0.8000E+01
      2.070  0.0000E+00  0.8000E+01
      2.203  0.0000E+00  0.8000E+01
      2.337  0.0000E+00  0.8000E+01
      2.471  0.0000E+00  0.8000E+01
      2.605  0.0000E+00  0.8000E+01
      2.738  0.0000E+00  0.8000E+01
      2.872  0.0000E+00  0.8000E+01
      3.006  0.0000E+00  0.8000E+01
      3.140  0.0000E+00  0.8000E+01
      3.273  0.0000E+00  0.8000E+01
      3.407  0.0000E+00  0.8000E+01
      3.541  0.0000E+00  0.8000E+01
      3.674  0.4488E-07  0.8000E+01
      3.808  0.1004E-01  0.8001E+01
      3.942  0.5898E-01  0.8009E+01
      4.076  0.2232E-03  0.8009E+01
      4.209  0.2664E-11  0.8009E+01
      4.343  0.6804E-12  0.8009E+01
      4.477  0.3507E-03  0.8009E+01
      4.610  0.3940E+00  0.8062E+01
      4.744  0.1625E+00  0.8084E+01
      4.878  0.3737E+00  0.8134E+01
      5.012  0.3890E-01  0.8139E+01
      5.145  0.7021E-07  0.8139E+01
      5.279  0.0000E+00  0.8139E+01
      5.413  0.6697E-07  0.8139E+01
      5.547  0.6028E-01  0.8147E+01
      5.680  0.7623E+00  0.8249E+01
      5.814  0.3914E-01  0.8254E+01
      5.948  0.7229E+00  0.8351E+01
      6.081  0.1663E+01  0.8573E+01
      6.215  0.4416E+00  0.8632E+01
      6.349  0.2567E+00  0.8667E+01
      6.483  0.4470E+00  0.8726E+01
      6.616  0.1214E+01  0.8889E+01
      6.750  0.5406E+00  0.8961E+01
      6.884  0.3572E+01  0.9439E+01
      7.017  0.1664E+01  0.9661E+01
      7.151  0.4102E-01  0.9667E+01
      7.285  0.1501E+00  0.9687E+01
      7.419  0.8995E+00  0.9807E+01
      7.552  0.1517E+01  0.1001E+02
      7.686  0.1415E+00  0.1003E+02
      7.820  0.1732E+01  0.1026E+02
      7.954  0.1003E+01  0.1039E+02
      8.087  0.2454E+01  0.1072E+02
      8.221  0.2961E+00  0.1076E+02
      8.355  0.2450E+01  0.1109E+02
      8.488  0.1557E+01  0.1130E+02
      8.622  0.2584E+01  0.1164E+02
      8.756  0.1567E+01  0.1185E+02
      8.890  0.3590E+00  0.1190E+02
      9.023  0.1082E+01  0.1205E+02
      9.157  0.1890E+01  0.1230E+02
      9.291  0.8952E+00  0.1242E+02
      9.424  0.2060E+01  0.1269E+02
      9.558  0.1500E+01  0.1289E+02
      9.692  0.3221E+01  0.1333E+02
      9.826  0.2040E+01  0.1360E+02
      9.959  0.8394E+00  0.1371E+02
     10.093  0.5674E+00  0.1379E+02
     10.227  0.1059E-01  0.1379E+02
     10.361  0.9651E+00  0.1392E+02
     10.494  0.3354E+00  0.1396E+02
     10.628  0.1658E+01  0.1418E+02
     10.762  0.2982E+01  0.1458E+02
     10.895  0.9051E-01  0.1459E+02
     11.029  0.1205E+01  0.1476E+02
     11.163  0.2977E+01  0.1515E+02
     11.297  0.1480E+01  0.1535E+02
     11.430  0.1187E+01  0.1551E+02
     11.564  0.1495E+01  0.1571E+02
     11.698  0.1025E+01  0.1585E+02
     11.831  0.1640E-01  0.1585E+02
     11.965  0.1933E-01  0.1585E+02
     12.099  0.4830E-05  0.1585E+02
     12.233  0.4910E-01  0.1586E+02
     12.366  0.1328E+01  0.1604E+02
     12.500  0.1831E+01  0.1628E+02
     12.634  0.9862E+00  0.1641E+02
     12.768  0.1145E+00  0.1643E+02
     12.901  0.1050E+01  0.1657E+02
     13.035  0.4944E+00  0.1663E+02
     13.169  0.1251E+01  0.1680E+02
     13.302  0.7234E+00  0.1690E+02
     13.436  0.3453E+00  0.1694E+02
     13.570  0.1374E+01  0.1713E+02
     13.704  0.1809E+01  0.1737E+02
     13.837  0.9487E+00  0.1750E+02
     13.971  0.8336E+00  0.1761E+02
     14.105  0.2502E+00  0.1764E+02
     14.239  0.2740E+00  0.1768E+02
     14.372  0.2981E+00  0.1772E+02
     14.506  0.2577E+00  0.1775E+02
     14.640  0.3060E+00  0.1779E+02
     14.773  0.1484E+00  0.1781E+02
     14.907  0.1338E+00  0.1783E+02
     15.041  0.3346E+00  0.1788E+02
     15.175  0.1465E+00  0.1790E+02
     15.308  0.1488E+00  0.1792E+02
     15.442  0.2104E+00  0.1794E+02
     15.576  0.4762E-01  0.1795E+02
     15.709  0.1695E+00  0.1797E+02
     15.843  0.9275E-01  0.1799E+02
     15.977  0.1081E+00  0.1800E+02
     16.111  0.3218E-03  0.1800E+02
     16.244  0.1056E-10  0.1800E+02
     16.378  0.0000E+00  0.1800E+02
     16.512  0.0000E+00  0.1800E+02
     16.646  0.0000E+00  0.1800E+02
     16.779  0.0000E+00  0.1800E+02
     16.913  0.0000E+00  0.1800E+02
     17.047  0.0000E+00  0.1800E+02
     17.180  0.0000E+00  0.1800E+02
     17.314  0.0000E+00  0.1800E+02
     17.448  0.0000E+00  0.1800E+02
     17.582  0.0000E+00  0.1800E+02
     17.715  0.0000E+00  0.1800E+02
