    1    1    1    1
  0.4557239E+02  0.4009334E-09  0.4009334E-09  0.4009334E-09  0.1000000E-15
  1.000000000000000E-004
  CAR 
 Og_FCC                                  
      8    216     18
 
  0.0000000E+00  0.0000000E+00  0.0000000E+00  0.4629630E-02
    1      -20.578060   1.000000
    2      -20.578016   1.000000
    3       -5.372700   1.000000
    4       -5.372687   1.000000
    5       -4.638174   1.000000
    6       -4.638161   1.000000
    7       -4.638148   1.000000
    8       -4.638135   1.000000
    9        3.845531   0.000000
   10        3.845532   0.000000
   11       10.432549   0.000000
   12       10.432558   0.000000
   13       10.432579   0.000000
   14       10.432622   0.000000
   15       10.443920   0.000000
   16       10.443972   0.000000
   17       13.064827   0.000000
   18       13.067860   0.000000
 
  0.1666667E+00  0.1653359E-17  0.1387779E-16  0.4629630E-02
    1      -20.529483   1.000000
    2      -20.529437   1.000000
    3       -5.581435   1.000000
    4       -5.581414   1.000000
    5       -4.904889   1.000000
    6       -4.904876   1.000000
    7       -4.684065   1.000000
    8       -4.684064   1.000000
    9        4.590703   0.000000
   10        4.590708   0.000000
   11        9.517240   0.000000
   12        9.517240   0.000000
   13       10.665550   0.000000
   14       10.665956   0.000000
   15       10.674334   0.000000
   16       10.674732   0.000000
   17       12.496918   0.000000
   18       12.500906   0.000000
 
  0.3333333E+00 -0.5220443E-16  0.1387779E-16  0.4629630E-02
    1      -20.432200   1.000000
    2      -20.432153   1.000000
    3       -6.170329   1.000000
    4       -6.170308   1.000000
    5       -5.155013   1.000000
    6       -5.155011   1.000000
    7       -4.776367   1.000000
    8       -4.776367   1.000000
    9        5.870279   0.000000
   10        5.870280   0.000000
   11        8.894935   0.000000
   12        8.894936   0.000000
   13       10.314274   0.000000
   14       10.314357   0.000000
   15       10.325220   0.000000
   16       10.325302   0.000000
   17       13.505663   0.000000
   18       13.672463   0.000000
 
  0.5000000E+00  0.4960076E-17  0.5551115E-16  0.4629630E-02
    1      -20.380610   1.000000
    2      -20.380562   1.000000
    3       -6.477024   1.000000
    4       -6.477005   1.000000
    5       -5.224873   1.000000
    6       -5.224872   1.000000
    7       -4.820868   1.000000
    8       -4.820867   1.000000
    9        6.248531   0.000000
   10        6.248543   0.000000
   11        9.115284   0.000000
   12        9.115327   0.000000
   13       10.004177   0.000000
   14       10.004177   0.000000
   15       10.014970   0.000000
   16       10.014970   0.000000
   17       13.764679   0.000000
   18       14.186473   0.000000
 
 -0.3333333E+00  0.5220443E-16 -0.1387779E-16  0.4629630E-02
    1      -20.432200   1.000000
    2      -20.432153   1.000000
    3       -6.170329   1.000000
    4       -6.170308   1.000000
    5       -5.155013   1.000000
    6       -5.155011   1.000000
    7       -4.776367   1.000000
    8       -4.776367   1.000000
    9        5.870279   0.000000
   10        5.870280   0.000000
   11        8.894932   0.000000
   12        8.894942   0.000000
   13       10.314272   0.000000
   14       10.314284   0.000000
   15       10.325292   0.000000
   16       10.325301   0.000000
   17       13.475200   0.000000
   18       13.673858   0.000000
 
 -0.1666667E+00 -0.1653359E-17 -0.1387779E-16  0.4629630E-02
    1      -20.529483   1.000000
    2      -20.529437   1.000000
    3       -5.581435   1.000000
    4       -5.581414   1.000000
    5       -4.904889   1.000000
    6       -4.904876   1.000000
    7       -4.684065   1.000000
    8       -4.684064   1.000000
    9        4.590703   0.000000
   10        4.590708   0.000000
   11        9.517237   0.000000
   12        9.517246   0.000000
   13       10.665598   0.000000
   14       10.665666   0.000000
   15       10.674598   0.000000
   16       10.674682   0.000000
   17       12.494834   0.000000
   18       12.500648   0.000000
 
 -0.3851860E-33  0.1666667E+00 -0.6938894E-17  0.4629630E-02
    1      -20.529483   1.000000
    2      -20.529437   1.000000
    3       -5.581434   1.000000
    4       -5.581415   1.000000
    5       -4.904889   1.000000
    6       -4.904876   1.000000
    7       -4.684071   1.000000
    8       -4.684057   1.000000
    9        4.590703   0.000000
   10        4.590708   0.000000
   11        9.517239   0.000000
   12        9.517240   0.000000
   13       10.665599   0.000000
   14       10.666204   0.000000
   15       10.674156   0.000000
   16       10.674685   0.000000
   17       12.499285   0.000000
   18       12.502594   0.000000
 
  0.1666667E+00  0.1666667E+00  0.2775558E-16  0.4629630E-02
    1      -20.513420   1.000000
    2      -20.513372   1.000000
    3       -5.609464   1.000000
    4       -5.609447   1.000000
    5       -4.951375   1.000000
    6       -4.951360   1.000000
    7       -4.776528   1.000000
    8       -4.776515   1.000000
    9        4.831280   0.000000
   10        4.831287   0.000000
   11        9.157120   0.000000
   12        9.157134   0.000000
   13       10.926724   0.000000
   14       10.927180   0.000000
   15       10.974979   0.000000
   16       10.975463   0.000000
   17       10.998869   0.000000
   18       10.999459   0.000000
 
  0.3333333E+00  0.1666667E+00  0.0000000E+00  0.4629630E-02
    1      -20.432391   1.000000
    2      -20.432344   1.000000
    3       -6.004773   1.000000
    4       -6.004752   1.000000
    5       -5.216761   1.000000
    6       -5.216754   1.000000
    7       -4.895534   1.000000
    8       -4.895528   1.000000
    9        5.989435   0.000000
   10        5.989445   0.000000
   11        8.519714   0.000000
   12        8.519720   0.000000
   13        9.587032   0.000000
   14        9.587047   0.000000
   15       11.127877   0.000000
   16       11.128188   0.000000
   17       12.293814   0.000000
   18       12.391989   0.000000
 
  0.5000000E+00  0.1666667E+00  0.8326673E-16  0.4629630E-02
    1      -20.364963   1.000000
    2      -20.364913   1.000000
    3       -6.350941   1.000000
    4       -6.350922   1.000000
    5       -5.373884   1.000000
    6       -5.373871   1.000000
    7       -4.978726   1.000000
    8       -4.978711   1.000000
    9        6.828207   0.000000
   10        6.828212   0.000000
   11        8.277321   0.000000
   12        8.277343   0.000000
   13        9.567301   0.000000
   14        9.567301   0.000000
   15       10.659127   0.000000
   16       10.659136   0.000000
   17       13.863394   0.000000
   18       14.265308   0.000000
 
 -0.3333333E+00  0.1666667E+00 -0.4163336E-16  0.4629630E-02
    1      -20.382024   1.000000
    2      -20.381976   1.000000
    3       -6.259687   1.000000
    4       -6.259668   1.000000
    5       -5.380982   1.000000
    6       -5.380961   1.000000
    7       -4.927070   1.000000
    8       -4.927047   1.000000
    9        6.778772   0.000000
   10        6.778774   0.000000
   11        8.509149   0.000000
   12        8.509153   0.000000
   13        9.324064   0.000000
   14        9.324069   0.000000
   15       10.608463   0.000000
   16       10.608475   0.000000
   17       13.103539   0.000000
   18       13.398226   0.000000
 
 -0.1666667E+00  0.1666667E+00 -0.3808273E-16  0.4629630E-02
    1      -20.464554   1.000000
    2      -20.464505   1.000000
    3       -5.868121   1.000000
    4       -5.868098   1.000000
    5       -5.156502   1.000000
    6       -5.156479   1.000000
    7       -4.792827   1.000000
    8       -4.792804   1.000000
    9        5.598030   0.000000
   10        5.598039   0.000000
   11        8.942012   0.000000
   12        8.942020   0.000000
   13        9.908673   0.000000
   14        9.908676   0.000000
   15       11.241576   0.000000
   16       11.242334   0.000000
   17       11.347271   0.000000
   18       11.348002   0.000000
 
 -0.3851860E-33  0.3333333E+00  0.1387779E-16  0.4629630E-02
    1      -20.432200   1.000000
    2      -20.432153   1.000000
    3       -6.170328   1.000000
    4       -6.170309   1.000000
    5       -5.155018   1.000000
    6       -5.155006   1.000000
    7       -4.776373   1.000000
    8       -4.776360   1.000000
    9        5.870279   0.000000
   10        5.870280   0.000000
   11        8.894938   0.000000
   12        8.894939   0.000000
   13       10.314272   0.000000
   14       10.314277   0.000000
   15       10.325299   0.000000
   16       10.325303   0.000000
   17       13.459822   0.000000
   18       13.647600   0.000000
 
  0.1666667E+00  0.3333333E+00  0.0000000E+00  0.4629630E-02
    1      -20.432391   1.000000
    2      -20.432344   1.000000
    3       -6.004772   1.000000
    4       -6.004753   1.000000
    5       -5.216763   1.000000
    6       -5.216752   1.000000
    7       -4.895538   1.000000
    8       -4.895524   1.000000
    9        5.989435   0.000000
   10        5.989445   0.000000
   11        8.519719   0.000000
   12        8.519728   0.000000
   13        9.587034   0.000000
   14        9.587069   0.000000
   15       11.127879   0.000000
   16       11.127881   0.000000
   17       12.293886   0.000000
   18       12.294032   0.000000
 
  0.3333333E+00  0.3333333E+00  0.0000000E+00  0.4629630E-02
    1      -20.384813   1.000000
    2      -20.384765   1.000000
    3       -6.133312   1.000000
    4       -6.133293   1.000000
    5       -5.359423   1.000000
    6       -5.359414   1.000000
    7       -5.045214   1.000000
    8       -5.045204   1.000000
    9        6.162342   0.000000
   10        6.162355   0.000000
   11        7.805725   0.000000
   12        7.805738   0.000000
   13        9.638361   0.000000
   14        9.638364   0.000000
   15       12.515957   0.000000
   16       12.541912   0.000000
   17       12.589505   0.000000
   18       14.168657   0.000000
 
  0.5000000E+00  0.3333333E+00  0.5551115E-16  0.4629630E-02
    1      -20.333660   1.000000
    2      -20.333611   1.000000
    3       -6.281263   1.000000
    4       -6.281245   1.000000
    5       -5.528970   1.000000
    6       -5.528953   1.000000
    7       -5.166401   1.000000
    8       -5.166383   1.000000
    9        6.504392   0.000000
   10        6.504402   0.000000
   11        7.777684   0.000000
   12        7.777693   0.000000
   13        9.753781   0.000000
   14        9.753788   0.000000
   15       12.423075   0.000000
   16       12.423465   0.000000
   17       13.503814   0.000000
   18       13.722310   0.000000
 
 -0.3333333E+00  0.3333333E+00 -0.2486581E-16  0.4629630E-02
    1      -20.333941   1.000000
    2      -20.333893   1.000000
    3       -6.205100   1.000000
    4       -6.205082   1.000000
    5       -5.698496   1.000000
    6       -5.698475   1.000000
    7       -5.117970   1.000000
    8       -5.117940   1.000000
    9        7.321600   0.000000
   10        7.321608   0.000000
   11        7.996922   0.000000
   12        7.996928   0.000000
   13        9.324410   0.000000
   14        9.324421   0.000000
   15       11.553958   0.000000
   16       11.584064   0.000000
   17       13.177662   0.000000
   18       13.434746   0.000000
 
 -0.1666667E+00  0.3333333E+00 -0.1387779E-16  0.4629630E-02
    1      -20.382024   1.000000
    2      -20.381976   1.000000
    3       -6.259687   1.000000
    4       -6.259668   1.000000
    5       -5.380982   1.000000
    6       -5.380960   1.000000
    7       -4.927071   1.000000
    8       -4.927046   1.000000
    9        6.778773   0.000000
   10        6.778776   0.000000
   11        8.509140   0.000000
   12        8.509274   0.000000
   13        9.324064   0.000000
   14        9.324077   0.000000
   15       10.608461   0.000000
   16       10.608468   0.000000
   17       13.121584   0.000000
   18       14.295194   0.000000
 
  0.0000000E+00  0.5000000E+00 -0.2775558E-16  0.4629630E-02
    1      -20.380610   1.000000
    2      -20.380562   1.000000
    3       -6.477023   1.000000
    4       -6.477006   1.000000
    5       -5.224879   1.000000
    6       -5.224867   1.000000
    7       -4.820874   1.000000
    8       -4.820861   1.000000
    9        6.248531   0.000000
   10        6.248543   0.000000
   11        9.115284   0.000000
   12        9.115327   0.000000
   13       10.004175   0.000000
   14       10.004179   0.000000
   15       10.014968   0.000000
   16       10.014972   0.000000
   17       13.801555   0.000000
   18       14.256734   0.000000
 
  0.1666667E+00  0.5000000E+00  0.2775558E-16  0.4629630E-02
    1      -20.364963   1.000000
    2      -20.364913   1.000000
    3       -6.350940   1.000000
    4       -6.350922   1.000000
    5       -5.373886   1.000000
    6       -5.373870   1.000000
    7       -4.978728   1.000000
    8       -4.978709   1.000000
    9        6.828206   0.000000
   10        6.828212   0.000000
   11        8.277330   0.000000
   12        8.277341   0.000000
   13        9.567299   0.000000
   14        9.567300   0.000000
   15       10.659127   0.000000
   16       10.659136   0.000000
   17       13.998414   0.000000
   18       14.559593   0.000000
 
  0.3333333E+00  0.5000000E+00  0.5551115E-16  0.4629630E-02
    1      -20.333660   1.000000
    2      -20.333611   1.000000
    3       -6.281263   1.000000
    4       -6.281245   1.000000
    5       -5.528971   1.000000
    6       -5.528953   1.000000
    7       -5.166401   1.000000
    8       -5.166382   1.000000
    9        6.504392   0.000000
   10        6.504403   0.000000
   11        7.777689   0.000000
   12        7.777693   0.000000
   13        9.753790   0.000000
   14        9.753834   0.000000
   15       12.420607   0.000000
   16       12.438247   0.000000
   17       13.506460   0.000000
   18       13.763747   0.000000
 
  0.5000000E+00  0.5000000E+00  0.1110223E-15  0.4629630E-02
    1      -20.317056   1.000000
    2      -20.317005   1.000000
    3       -6.384987   1.000000
    4       -6.384970   1.000000
    5       -5.510932   1.000000
    6       -5.510923   1.000000
    7       -5.172741   1.000000
    8       -5.172730   1.000000
    9        6.006126   0.000000
   10        6.006133   0.000000
   11        7.325791   0.000000
   12        7.325807   0.000000
   13       10.671055   0.000000
   14       10.671074   0.000000
   15       14.378588   0.000000
   16       14.475822   0.000000
   17       14.592054   0.000000
   18       14.911805   0.000000
 
 -0.3333333E+00  0.5000000E+00 -0.2081668E-16  0.4629630E-02
    1      -20.333660   1.000000
    2      -20.333611   1.000000
    3       -6.281263   1.000000
    4       -6.281245   1.000000
    5       -5.528971   1.000000
    6       -5.528953   1.000000
    7       -5.166401   1.000000
    8       -5.166382   1.000000
    9        6.504392   0.000000
   10        6.504402   0.000000
   11        7.777683   0.000000
   12        7.777693   0.000000
   13        9.753780   0.000000
   14        9.753828   0.000000
   15       12.420606   0.000000
   16       12.420654   0.000000
   17       13.504106   0.000000
   18       13.653011   0.000000
 
 -0.1666667E+00  0.5000000E+00 -0.5551115E-16  0.4629630E-02
    1      -20.364963   1.000000
    2      -20.364913   1.000000
    3       -6.350940   1.000000
    4       -6.350922   1.000000
    5       -5.373886   1.000000
    6       -5.373870   1.000000
    7       -4.978728   1.000000
    8       -4.978709   1.000000
    9        6.828210   0.000000
   10        6.828212   0.000000
   11        8.277322   0.000000
   12        8.277403   0.000000
   13        9.567299   0.000000
   14        9.567300   0.000000
   15       10.659127   0.000000
   16       10.659135   0.000000
   17       13.819632   0.000000
   18       15.711279   0.000000
 
  0.3851860E-33 -0.3333333E+00 -0.1387779E-16  0.4629630E-02
    1      -20.432200   1.000000
    2      -20.432153   1.000000
    3       -6.170328   1.000000
    4       -6.170309   1.000000
    5       -5.155018   1.000000
    6       -5.155006   1.000000
    7       -4.776374   1.000000
    8       -4.776360   1.000000
    9        5.870279   0.000000
   10        5.870280   0.000000
   11        8.894930   0.000000
   12        8.894942   0.000000
   13       10.314271   0.000000
   14       10.314298   0.000000
   15       10.325278   0.000000
   16       10.325302   0.000000
   17       13.509089   0.000000
   18       13.691050   0.000000
 
  0.1666667E+00 -0.3333333E+00  0.1387779E-16  0.4629630E-02
    1      -20.382024   1.000000
    2      -20.381976   1.000000
    3       -6.259687   1.000000
    4       -6.259668   1.000000
    5       -5.380983   1.000000
    6       -5.380961   1.000000
    7       -4.927071   1.000000
    8       -4.927046   1.000000
    9        6.778772   0.000000
   10        6.778773   0.000000
   11        8.509158   0.000000
   12        8.509175   0.000000
   13        9.324072   0.000000
   14        9.324109   0.000000
   15       10.608456   0.000000
   16       10.608465   0.000000
   17       13.103536   0.000000
   18       13.237355   0.000000
 
  0.3333333E+00 -0.3333333E+00  0.2486581E-16  0.4629630E-02
    1      -20.333941   1.000000
    2      -20.333893   1.000000
    3       -6.205100   1.000000
    4       -6.205081   1.000000
    5       -5.698497   1.000000
    6       -5.698475   1.000000
    7       -5.117970   1.000000
    8       -5.117940   1.000000
    9        7.321600   0.000000
   10        7.321612   0.000000
   11        7.996909   0.000000
   12        7.996917   0.000000
   13        9.324387   0.000000
   14        9.324390   0.000000
   15       11.547800   0.000000
   16       11.565721   0.000000
   17       13.178179   0.000000
   18       13.661639   0.000000
 
  0.5000000E+00 -0.3333333E+00  0.6245005E-16  0.4629630E-02
    1      -20.333660   1.000000
    2      -20.333611   1.000000
    3       -6.281263   1.000000
    4       -6.281245   1.000000
    5       -5.528970   1.000000
    6       -5.528954   1.000000
    7       -5.166401   1.000000
    8       -5.166382   1.000000
    9        6.504392   0.000000
   10        6.504402   0.000000
   11        7.777684   0.000000
   12        7.777694   0.000000
   13        9.753791   0.000000
   14        9.753855   0.000000
   15       12.420616   0.000000
   16       12.422083   0.000000
   17       13.507183   0.000000
   18       13.633597   0.000000
 
 -0.3333333E+00 -0.3333333E+00  0.0000000E+00  0.4629630E-02
    1      -20.384813   1.000000
    2      -20.384765   1.000000
    3       -6.133312   1.000000
    4       -6.133293   1.000000
    5       -5.359423   1.000000
    6       -5.359414   1.000000
    7       -5.045214   1.000000
    8       -5.045204   1.000000
    9        6.162342   0.000000
   10        6.162355   0.000000
   11        7.805724   0.000000
   12        7.805738   0.000000
   13        9.638361   0.000000
   14        9.638364   0.000000
   15       12.514921   0.000000
   16       12.518128   0.000000
   17       12.589388   0.000000
   18       12.589407   0.000000
 
 -0.1666667E+00 -0.3333333E+00  0.0000000E+00  0.4629630E-02
    1      -20.432391   1.000000
    2      -20.432344   1.000000
    3       -6.004772   1.000000
    4       -6.004753   1.000000
    5       -5.216763   1.000000
    6       -5.216752   1.000000
    7       -4.895538   1.000000
    8       -4.895524   1.000000
    9        5.989435   0.000000
   10        5.989445   0.000000
   11        8.519713   0.000000
   12        8.519720   0.000000
   13        9.587039   0.000000
   14        9.587093   0.000000
   15       11.127874   0.000000
   16       11.128058   0.000000
   17       12.293808   0.000000
   18       12.304879   0.000000
 
  0.1925930E-33 -0.1666667E+00  0.0000000E+00  0.4629630E-02
    1      -20.529483   1.000000
    2      -20.529437   1.000000
    3       -5.581434   1.000000
    4       -5.581414   1.000000
    5       -4.904889   1.000000
    6       -4.904876   1.000000
    7       -4.684071   1.000000
    8       -4.684057   1.000000
    9        4.590703   0.000000
   10        4.590709   0.000000
   11        9.517240   0.000000
   12        9.517241   0.000000
   13       10.665521   0.000000
   14       10.666803   0.000000
   15       10.673589   0.000000
   16       10.674672   0.000000
   17       12.495050   0.000000
   18       12.503111   0.000000
 
  0.1666667E+00 -0.1666667E+00  0.9330303E-17  0.4629630E-02
    1      -20.464554   1.000000
    2      -20.464505   1.000000
    3       -5.868121   1.000000
    4       -5.868098   1.000000
    5       -5.156502   1.000000
    6       -5.156479   1.000000
    7       -4.792827   1.000000
    8       -4.792804   1.000000
    9        5.598030   0.000000
   10        5.598039   0.000000
   11        8.942019   0.000000
   12        8.942024   0.000000
   13        9.908676   0.000000
   14        9.908897   0.000000
   15       11.241570   0.000000
   16       11.327076   0.000000
   17       11.348026   0.000000
   18       13.220497   0.000000
 
  0.3333333E+00 -0.1666667E+00  0.4163336E-16  0.4629630E-02
    1      -20.382024   1.000000
    2      -20.381976   1.000000
    3       -6.259687   1.000000
    4       -6.259668   1.000000
    5       -5.380982   1.000000
    6       -5.380961   1.000000
    7       -4.927070   1.000000
    8       -4.927047   1.000000
    9        6.778772   0.000000
   10        6.778773   0.000000
   11        8.509141   0.000000
   12        8.509172   0.000000
   13        9.324065   0.000000
   14        9.324072   0.000000
   15       10.608457   0.000000
   16       10.608472   0.000000
   17       13.125436   0.000000
   18       13.699367   0.000000
 
  0.5000000E+00 -0.1666667E+00  0.4163336E-16  0.4629630E-02
    1      -20.364963   1.000000
    2      -20.364913   1.000000
    3       -6.350941   1.000000
    4       -6.350921   1.000000
    5       -5.373884   1.000000
    6       -5.373872   1.000000
    7       -4.978726   1.000000
    8       -4.978711   1.000000
    9        6.828206   0.000000
   10        6.828212   0.000000
   11        8.277323   0.000000
   12        8.277390   0.000000
   13        9.567300   0.000000
   14        9.567301   0.000000
   15       10.659127   0.000000
   16       10.659136   0.000000
   17       13.862480   0.000000
   18       14.127029   0.000000
 
 -0.3333333E+00 -0.1666667E+00 -0.2775558E-16  0.4629630E-02
    1      -20.432391   1.000000
    2      -20.432344   1.000000
    3       -6.004773   1.000000
    4       -6.004752   1.000000
    5       -5.216761   1.000000
    6       -5.216754   1.000000
    7       -4.895534   1.000000
    8       -4.895528   1.000000
    9        5.989435   0.000000
   10        5.989446   0.000000
   11        8.519719   0.000000
   12        8.519726   0.000000
   13        9.587036   0.000000
   14        9.587082   0.000000
   15       11.127873   0.000000
   16       11.127902   0.000000
   17       12.293817   0.000000
   18       12.297649   0.000000
 
 -0.1666667E+00 -0.1666667E+00  0.1387779E-16  0.4629630E-02
    1      -20.513420   1.000000
    2      -20.513372   1.000000
    3       -5.609465   1.000000
    4       -5.609447   1.000000
    5       -4.951375   1.000000
    6       -4.951360   1.000000
    7       -4.776528   1.000000
    8       -4.776515   1.000000
    9        4.831280   0.000000
   10        4.831287   0.000000
   11        9.157136   0.000000
   12        9.157150   0.000000
   13       10.926754   0.000000
   14       10.926939   0.000000
   15       10.974942   0.000000
   16       10.986865   0.000000
   17       10.999477   0.000000
   18       11.443129   0.000000
 
  0.0000000E+00  0.1540744E-32  0.1666667E+00  0.4629630E-02
    1      -20.529483   1.000000
    2      -20.529437   1.000000
    3       -5.581433   1.000000
    4       -5.581415   1.000000
    5       -4.904888   1.000000
    6       -4.904876   1.000000
    7       -4.684075   1.000000
    8       -4.684053   1.000000
    9        4.590703   0.000000
   10        4.590708   0.000000
   11        9.517241   0.000000
   12        9.517245   0.000000
   13       10.665521   0.000000
   14       10.665611   0.000000
   15       10.674689   0.000000
   16       10.674731   0.000000
   17       12.496636   0.000000
   18       12.500873   0.000000
 
  0.1666667E+00  0.1057107E-16  0.1666667E+00  0.4629630E-02
    1      -20.513419   1.000000
    2      -20.513372   1.000000
    3       -5.609464   1.000000
    4       -5.609448   1.000000
    5       -4.951375   1.000000
    6       -4.951361   1.000000
    7       -4.776532   1.000000
    8       -4.776512   1.000000
    9        4.831280   0.000000
   10        4.831287   0.000000
   11        9.157119   0.000000
   12        9.157134   0.000000
   13       10.926579   0.000000
   14       10.926650   0.000000
   15       10.974924   0.000000
   16       10.974948   0.000000
   17       10.999360   0.000000
   18       10.999439   0.000000
 
  0.3333333E+00 -0.5716451E-16  0.1666667E+00  0.4629630E-02
    1      -20.432391   1.000000
    2      -20.432343   1.000000
    3       -6.004773   1.000000
    4       -6.004752   1.000000
    5       -5.216761   1.000000
    6       -5.216753   1.000000
    7       -4.895535   1.000000
    8       -4.895527   1.000000
    9        5.989435   0.000000
   10        5.989445   0.000000
   11        8.519714   0.000000
   12        8.519720   0.000000
   13        9.587024   0.000000
   14        9.587031   0.000000
   15       11.127885   0.000000
   16       11.129386   0.000000
   17       12.294106   0.000000
   18       13.537962   0.000000
 
  0.5000000E+00  0.0000000E+00  0.1666667E+00  0.4629630E-02
    1      -20.364963   1.000000
    2      -20.364913   1.000000
    3       -6.350941   1.000000
    4       -6.350922   1.000000
    5       -5.373884   1.000000
    6       -5.373872   1.000000
    7       -4.978726   1.000000
    8       -4.978712   1.000000
    9        6.828207   0.000000
   10        6.828212   0.000000
   11        8.277322   0.000000
   12        8.277340   0.000000
   13        9.567302   0.000000
   14        9.567308   0.000000
   15       10.659127   0.000000
   16       10.659136   0.000000
   17       13.844598   0.000000
   18       14.973942   0.000000
 
 -0.3333333E+00  0.4724436E-16  0.1666667E+00  0.4629630E-02
    1      -20.382024   1.000000
    2      -20.381975   1.000000
    3       -6.259687   1.000000
    4       -6.259668   1.000000
    5       -5.380981   1.000000
    6       -5.380961   1.000000
    7       -4.927070   1.000000
    8       -4.927047   1.000000
    9        6.778772   0.000000
   10        6.778774   0.000000
   11        8.509147   0.000000
   12        8.509167   0.000000
   13        9.324064   0.000000
   14        9.324069   0.000000
   15       10.608455   0.000000
   16       10.608465   0.000000
   17       13.136488   0.000000
   18       13.262457   0.000000
 
 -0.1666667E+00  0.7264353E-17  0.1666667E+00  0.4629630E-02
    1      -20.464554   1.000000
    2      -20.464506   1.000000
    3       -5.868120   1.000000
    4       -5.868099   1.000000
    5       -5.156501   1.000000
    6       -5.156480   1.000000
    7       -4.792828   1.000000
    8       -4.792804   1.000000
    9        5.598030   0.000000
   10        5.598039   0.000000
   11        8.942014   0.000000
   12        8.942019   0.000000
   13        9.908674   0.000000
   14        9.908692   0.000000
   15       11.241580   0.000000
   16       11.242159   0.000000
   17       11.348027   0.000000
   18       11.348048   0.000000
 
 -0.7703720E-33  0.1666667E+00  0.1666667E+00  0.4629630E-02
    1      -20.513419   1.000000
    2      -20.513372   1.000000
    3       -5.609461   1.000000
    4       -5.609450   1.000000
    5       -4.951373   1.000000
    6       -4.951363   1.000000
    7       -4.776537   1.000000
    8       -4.776506   1.000000
    9        4.831280   0.000000
   10        4.831287   0.000000
   11        9.157140   0.000000
   12        9.157178   0.000000
   13       10.926789   0.000000
   14       10.935298   0.000000
   15       10.974940   0.000000
   16       10.978892   0.000000
   17       10.990465   0.000000
   18       10.999449   0.000000
 
  0.1666667E+00  0.1666667E+00  0.1666667E+00  0.4629630E-02
    1      -20.529484   1.000000
    2      -20.529437   1.000000
    3       -5.581429   1.000000
    4       -5.581420   1.000000
    5       -4.904887   1.000000
    6       -4.904877   1.000000
    7       -4.684082   1.000000
    8       -4.684046   1.000000
    9        4.590703   0.000000
   10        4.590708   0.000000
   11        9.517238   0.000000
   12        9.517240   0.000000
   13       10.665665   0.000000
   14       10.665673   0.000000
   15       10.674596   0.000000
   16       10.674685   0.000000
   17       12.495199   0.000000
   18       12.501030   0.000000
 
  0.3333333E+00  0.1666667E+00  0.1666667E+00  0.4629630E-02
    1      -20.464553   1.000000
    2      -20.464505   1.000000
    3       -5.868118   1.000000
    4       -5.868101   1.000000
    5       -5.156498   1.000000
    6       -5.156483   1.000000
    7       -4.792829   1.000000
    8       -4.792801   1.000000
    9        5.598030   0.000000
   10        5.598039   0.000000
   11        8.942012   0.000000
   12        8.942019   0.000000
   13        9.908678   0.000000
   14        9.908814   0.000000
   15       11.241575   0.000000
   16       11.241739   0.000000
   17       11.347853   0.000000
   18       11.348012   0.000000
 
  0.5000000E+00  0.1666667E+00  0.1666667E+00  0.4629630E-02
    1      -20.382024   1.000000
    2      -20.381975   1.000000
    3       -6.259687   1.000000
    4       -6.259668   1.000000
    5       -5.380980   1.000000