    1    1    1    1
  0.4928368E+02  0.4115343E-09  0.4115343E-09  0.4115343E-09  0.1000000E-15
  1.000000000000000E-004
  CAR 
 Og_FCC                                  
      8    216     24
 
  0.0000000E+00  0.0000000E+00  0.0000000E+00  0.4629630E-02
    1      -20.901157   1.000000
    2      -20.901088   1.000000
    3       -5.836274   1.000000
    4       -5.836256   1.000000
    5       -5.111105   1.000000
    6       -5.111087   1.000000
    7       -5.111069   1.000000
    8       -5.111051   1.000000
    9        3.338284   0.000000
   10        3.338290   0.000000
   11        9.879078   0.000000
   12        9.879086   0.000000
   13        9.879093   0.000000
   14        9.879099   0.000000
   15        9.889312   0.000000
   16        9.889319   0.000000
   17       12.359238   0.000000
   18       12.359239   0.000000
   19       12.359257   0.000000
   20       12.359258   0.000000
   21       13.297203   0.000000
   22       13.297208   0.000000
   23       15.734087   0.000000
   24       15.752334   0.000000
 
  0.1666667E+00 -0.1222443E-16 -0.6938894E-17  0.4629630E-02
    1      -20.863819   1.000000
    2      -20.863749   1.000000
    3       -6.002233   1.000000
    4       -6.002206   1.000000
    5       -5.340545   1.000000
    6       -5.340524   1.000000
    7       -5.150016   1.000000
    8       -5.150015   1.000000
    9        4.021547   0.000000
   10        4.021559   0.000000
   11        8.981322   0.000000
   12        8.981334   0.000000
   13       10.093023   0.000000
   14       10.093023   0.000000
   15       10.101091   0.000000
   16       10.101092   0.000000
   17       11.823207   0.000000
   18       11.823208   0.000000
   19       11.831300   0.000000
   20       11.831303   0.000000
   21       13.928395   0.000000
   22       13.928423   0.000000
   23       15.390005   0.000000
   24       15.390016   0.000000
 
  0.3333333E+00  0.3306717E-17  0.0000000E+00  0.4629630E-02
    1      -20.789341   1.000000
    2      -20.789269   1.000000
    3       -6.468060   1.000000
    4       -6.468030   1.000000
    5       -5.580803   1.000000
    6       -5.580799   1.000000
    7       -5.228041   1.000000
    8       -5.228040   1.000000
    9        5.294257   0.000000
   10        5.294264   0.000000
   11        8.235923   0.000000
   12        8.235945   0.000000
   13        9.762764   0.000000
   14        9.762764   0.000000
   15        9.772523   0.000000
   16        9.772523   0.000000
   17       12.718027   0.000000
   18       12.718027   0.000000
   19       12.737347   0.000000
   20       12.737348   0.000000
   21       12.957942   0.000000
   22       12.957973   0.000000
   23       17.727146   0.000000
   24       18.891275   0.000000
 
  0.5000000E+00  0.3271565E-16  0.0000000E+00  0.4629630E-02
    1      -20.750171   1.000000
    2      -20.750098   1.000000
    3       -6.719239   1.000000
    4       -6.719213   1.000000
    5       -5.648726   1.000000
    6       -5.648725   1.000000
    7       -5.265831   1.000000
    8       -5.265830   1.000000
    9        5.768703   0.000000
   10        5.768715   0.000000
   11        8.284263   0.000000
   12        8.284325   0.000000
   13        9.471740   0.000000
   14        9.471740   0.000000
   15        9.481349   0.000000
   16        9.481349   0.000000
   17       13.009211   0.000000
   18       13.009862   0.000000
   19       14.342505   0.000000
   20       14.352336   0.000000
   21       14.404266   0.000000
   22       15.048773   0.000000
   23       15.644521   0.000000
   24       16.301595   0.000000
 
 -0.3333333E+00 -0.3306717E-17  0.0000000E+00  0.4629630E-02
    1      -20.789341   1.000000
    2      -20.789269   1.000000
    3       -6.468060   1.000000
    4       -6.468030   1.000000
    5       -5.580803   1.000000
    6       -5.580799   1.000000
    7       -5.228041   1.000000
    8       -5.228040   1.000000
    9        5.294257   0.000000
   10        5.294264   0.000000
   11        8.235923   0.000000
   12        8.235948   0.000000
   13        9.762764   0.000000
   14        9.762764   0.000000
   15        9.772523   0.000000
   16        9.772524   0.000000
   17       12.718028   0.000000
   18       12.718030   0.000000
   19       12.737348   0.000000
   20       12.737350   0.000000
   21       12.957942   0.000000
   22       12.957973   0.000000
   23       17.962277   0.000000
   24       18.834076   0.000000
 
 -0.1666667E+00  0.1222443E-16  0.6938894E-17  0.4629630E-02
    1      -20.863819   1.000000
    2      -20.863749   1.000000
    3       -6.002233   1.000000
    4       -6.002205   1.000000
    5       -5.340544   1.000000
    6       -5.340524   1.000000
    7       -5.150016   1.000000
    8       -5.150015   1.000000
    9        4.021547   0.000000
   10        4.021559   0.000000
   11        8.981322   0.000000
   12        8.981334   0.000000
   13       10.093023   0.000000
   14       10.093023   0.000000
   15       10.101091   0.000000
   16       10.101092   0.000000
   17       11.823207   0.000000
   18       11.823207   0.000000
   19       11.831301   0.000000
   20       11.831302   0.000000
   21       13.928419   0.000000
   22       13.928471   0.000000
   23       15.390017   0.000000
   24       15.747530   0.000000
 
  0.5777790E-33  0.1666667E+00  0.1387779E-16  0.4629630E-02
    1      -20.863819   1.000000
    2      -20.863749   1.000000
    3       -6.002232   1.000000
    4       -6.002206   1.000000
    5       -5.340544   1.000000
    6       -5.340524   1.000000
    7       -5.150025   1.000000
    8       -5.150006   1.000000
    9        4.021547   0.000000
   10        4.021559   0.000000
   11        8.981323   0.000000
   12        8.981334   0.000000
   13       10.093019   0.000000
   14       10.093026   0.000000
   15       10.101088   0.000000
   16       10.101095   0.000000
   17       11.823205   0.000000
   18       11.823210   0.000000
   19       11.831299   0.000000
   20       11.831305   0.000000
   21       13.928404   0.000000
   22       13.928559   0.000000
   23       15.390005   0.000000
   24       16.096454   0.000000
 
  0.1666667E+00  0.1666667E+00  0.1387779E-16  0.4629630E-02
    1      -20.851476   1.000000
    2      -20.851406   1.000000
    3       -6.028802   1.000000
    4       -6.028779   1.000000
    5       -5.376098   1.000000
    6       -5.376076   1.000000
    7       -5.226941   1.000000
    8       -5.226925   1.000000
    9        4.242019   0.000000
   10        4.242034   0.000000
   11        8.675159   0.000000
   12        8.675175   0.000000
   13       10.330966   0.000000
   14       10.330972   0.000000
   15       10.362016   0.000000
   16       10.362020   0.000000
   17       10.382825   0.000000
   18       10.382830   0.000000
   19       12.733096   0.000000
   20       12.733114   0.000000
   21       15.447179   0.000000
   22       15.509387   0.000000
   23       16.043191   0.000000
   24       16.335391   0.000000
 
  0.3333333E+00  0.1666667E+00  0.2775558E-16  0.4629630E-02
    1      -20.789432   1.000000
    2      -20.789361   1.000000
    3       -6.341163   1.000000
    4       -6.341133   1.000000
    5       -5.618827   1.000000
    6       -5.618816   1.000000
    7       -5.326972   1.000000
    8       -5.326965   1.000000
    9        5.359761   0.000000
   10        5.359780   0.000000
   11        8.015415   0.000000
   12        8.015416   0.000000
   13        9.046359   0.000000
   14        9.046365   0.000000
   15       10.496034   0.000000
   16       10.496047   0.000000
   17       11.569745   0.000000
   18       11.569751   0.000000
   19       13.392340   0.000000
   20       13.392354   0.000000
   21       14.900956   0.000000
   22       14.901271   0.000000
   23       17.931355   0.000000
   24       18.078967   0.000000
 
  0.5000000E+00  0.1666667E+00  0.0000000E+00  0.4629630E-02
    1      -20.738163   1.000000
    2      -20.738090   1.000000
    3       -6.620314   1.000000
    4       -6.620286   1.000000
    5       -5.762096   1.000000
    6       -5.762079   1.000000
    7       -5.398769   1.000000
    8       -5.398752   1.000000
    9        6.288864   0.000000
   10        6.288867   0.000000
   11        7.673626   0.000000
   12        7.673658   0.000000
   13        8.929365   0.000000
   14        8.929366   0.000000
   15       10.068069   0.000000
   16       10.068082   0.000000
   17       12.972098   0.000000
   18       12.972110   0.000000
   19       14.430041   0.000000
   20       14.436453   0.000000
   21       14.916982   0.000000
   22       14.932550   0.000000
   23       15.209314   0.000000
   24       15.279067   0.000000
 
 -0.3333333E+00  0.1666667E+00  0.2081668E-16  0.4629630E-02
    1      -20.751113   1.000000
    2      -20.751040   1.000000
    3       -6.546505   1.000000
    4       -6.546476   1.000000
    5       -5.760946   1.000000
    6       -5.760919   1.000000
    7       -5.358600   1.000000
    8       -5.358571   1.000000
    9        6.173962   0.000000
   10        6.173969   0.000000
   11        7.905840   0.000000
   12        7.905868   0.000000
   13        8.743900   0.000000
   14        8.743905   0.000000
   15       10.031560   0.000000
   16       10.031574   0.000000
   17       12.390755   0.000000
   18       12.390758   0.000000
   19       14.600021   0.000000
   20       14.619517   0.000000
   21       14.644211   0.000000
   22       14.646247   0.000000
   23       15.172704   0.000000
   24       15.331167   0.000000
 
 -0.1666667E+00  0.1666667E+00  0.3112085E-16  0.4629630E-02
    1      -20.814055   1.000000
    2      -20.813984   1.000000
    3       -6.231287   1.000000
    4       -6.231257   1.000000
    5       -5.559419   1.000000
    6       -5.559388   1.000000
    7       -5.244100   1.000000
    8       -5.244072   1.000000
    9        4.963441   0.000000
   10        4.963457   0.000000
   11        8.416562   0.000000
   12        8.416571   0.000000
   13        9.346862   0.000000
   14        9.346864   0.000000
   15       10.636628   0.000000
   16       10.636642   0.000000
   17       10.744597   0.000000
   18       10.744618   0.000000
   19       13.024724   0.000000
   20       13.024734   0.000000
   21       15.176612   0.000000
   22       15.207797   0.000000
   23       15.887572   0.000000
   24       15.894072   0.000000
 
  0.3851860E-33  0.3333333E+00 -0.1387779E-16  0.4629630E-02
    1      -20.789341   1.000000
    2      -20.789269   1.000000
    3       -6.468059   1.000000
    4       -6.468030   1.000000
    5       -5.580809   1.000000
    6       -5.580794   1.000000
    7       -5.228049   1.000000
    8       -5.228031   1.000000
    9        5.294257   0.000000
   10        5.294264   0.000000
   11        8.235923   0.000000
   12        8.235945   0.000000
   13        9.762761   0.000000
   14        9.762767   0.000000
   15        9.772521   0.000000
   16        9.772526   0.000000
   17       12.718026   0.000000
   18       12.718030   0.000000
   19       12.737346   0.000000
   20       12.737353   0.000000
   21       12.957942   0.000000
   22       12.957973   0.000000
   23       17.612832   0.000000
   24       18.159797   0.000000
 
  0.1666667E+00  0.3333333E+00  0.0000000E+00  0.4629630E-02
    1      -20.789432   1.000000
    2      -20.789361   1.000000
    3       -6.341162   1.000000
    4       -6.341134   1.000000
    5       -5.618829   1.000000
    6       -5.618814   1.000000
    7       -5.326978   1.000000
    8       -5.326959   1.000000
    9        5.359761   0.000000
   10        5.359780   0.000000
   11        8.015409   0.000000
   12        8.015416   0.000000
   13        9.046359   0.000000
   14        9.046365   0.000000
   15       10.496034   0.000000
   16       10.496047   0.000000
   17       11.569740   0.000000
   18       11.569747   0.000000
   19       13.392351   0.000000
   20       13.392352   0.000000
   21       14.901395   0.000000
   22       14.947528   0.000000
   23       17.934575   0.000000
   24       18.102511   0.000000
 
  0.3333333E+00  0.3333333E+00 -0.5551115E-16  0.4629630E-02
    1      -20.753011   1.000000
    2      -20.752939   1.000000
    3       -6.450109   1.000000
    4       -6.450083   1.000000
    5       -5.739413   1.000000
    6       -5.739402   1.000000
    7       -5.452911   1.000000
    8       -5.452896   1.000000
    9        5.632504   0.000000
   10        5.632523   0.000000
   11        7.396481   0.000000
   12        7.396498   0.000000
   13        8.924480   0.000000
   14        8.924492   0.000000
   15       11.742957   0.000000
   16       11.743034   0.000000
   17       11.814269   0.000000
   18       11.814287   0.000000
   19       13.699904   0.000000
   20       13.703815   0.000000
   21       17.096522   0.000000
   22       17.197719   0.000000
   23       17.380949   0.000000
   24       17.824416   0.000000
 
  0.5000000E+00  0.3333333E+00 -0.5551115E-16  0.4629630E-02
    1      -20.714179   1.000000
    2      -20.714105   1.000000
    3       -6.573574   1.000000
    4       -6.573548   1.000000
    5       -5.880000   1.000000
    6       -5.879977   1.000000
    7       -5.557216   1.000000
    8       -5.557192   1.000000
    9        6.063612   0.000000
   10        6.063627   0.000000
   11        7.319956   0.000000
   12        7.319965   0.000000
   13        8.966632   0.000000
   14        8.966651   0.000000
   15       11.671059   0.000000
   16       11.671336   0.000000
   17       12.557180   0.000000
   18       12.557187   0.000000
   19       14.685691   0.000000
   20       14.724211   0.000000
   21       15.308748   0.000000
   22       15.459663   0.000000
   23       16.138852   0.000000
   24       16.632910   0.000000
 
 -0.3333333E+00  0.3333333E+00 -0.6961073E-17  0.4629630E-02
    1      -20.714413   1.000000
    2      -20.714340   1.000000
    3       -6.521037   1.000000
    4       -6.521010   1.000000
    5       -5.999875   1.000000
    6       -5.999842   1.000000
    7       -5.523927   1.000000
    8       -5.523887   1.000000
    9        6.880038   0.000000
   10        6.880049   0.000000
   11        7.362382   0.000000
   12        7.362392   0.000000
   13        8.623559   0.000000
   14        8.623578   0.000000
   15       10.875341   0.000000
   16       10.875355   0.000000
   17       12.290963   0.000000
   18       12.290973   0.000000
   19       13.095094   0.000000
   20       13.098025   0.000000
   21       16.935204   0.000000
   22       17.036833   0.000000
   23       17.797929   0.000000
   24       18.088978   0.000000
 
 -0.1666667E+00  0.3333333E+00  0.0000000E+00  0.4629630E-02
    1      -20.751113   1.000000
    2      -20.751040   1.000000
    3       -6.546505   1.000000
    4       -6.546477   1.000000
    5       -5.760946   1.000000
    6       -5.760918   1.000000
    7       -5.358601   1.000000
    8       -5.358569   1.000000
    9        6.173962   0.000000
   10        6.173969   0.000000
   11        7.905840   0.000000
   12        7.905868   0.000000
   13        8.743901   0.000000
   14        8.743905   0.000000
   15       10.031559   0.000000
   16       10.031573   0.000000
   17       12.390742   0.000000
   18       12.390757   0.000000
   19       14.599697   0.000000
   20       14.599877   0.000000
   21       14.644675   0.000000
   22       14.645856   0.000000
   23       15.175273   0.000000
   24       15.180188   0.000000
 
  0.1540744E-32  0.5000000E+00  0.0000000E+00  0.4629630E-02
    1      -20.750171   1.000000
    2      -20.750098   1.000000
    3       -6.719238   1.000000
    4       -6.719213   1.000000
    5       -5.648734   1.000000
    6       -5.648718   1.000000
    7       -5.265840   1.000000
    8       -5.265822   1.000000
    9        5.768703   0.000000
   10        5.768715   0.000000
   11        8.284263   0.000000
   12        8.284325   0.000000
   13        9.471737   0.000000
   14        9.471743   0.000000
   15        9.481346   0.000000
   16        9.481352   0.000000
   17       13.009221   0.000000
   18       13.012781   0.000000
   19       14.345250   0.000000
   20       14.355229   0.000000
   21       14.398126   0.000000
   22       14.621776   0.000000
   23       15.785699   0.000000
   24       16.510870   0.000000
 
  0.1666667E+00  0.5000000E+00  0.0000000E+00  0.4629630E-02
    1      -20.738163   1.000000
    2      -20.738090   1.000000
    3       -6.620313   1.000000
    4       -6.620286   1.000000
    5       -5.762099   1.000000
    6       -5.762077   1.000000
    7       -5.398772   1.000000
    8       -5.398749   1.000000
    9        6.288865   0.000000
   10        6.288867   0.000000
   11        7.673626   0.000000
   12        7.673658   0.000000
   13        8.929367   0.000000
   14        8.929367   0.000000
   15       10.068074   0.000000
   16       10.068085   0.000000
   17       12.972168   0.000000
   18       12.976957   0.000000
   19       14.504297   0.000000
   20       14.833210   0.000000
   21       14.952130   0.000000
   22       14.969164   0.000000
   23       15.377088   0.000000
   24       16.692841   0.000000
 
  0.3333333E+00  0.5000000E+00  0.0000000E+00  0.4629630E-02
    1      -20.714179   1.000000
    2      -20.714105   1.000000
    3       -6.573574   1.000000
    4       -6.573548   1.000000
    5       -5.880001   1.000000
    6       -5.879977   1.000000
    7       -5.557216   1.000000
    8       -5.557192   1.000000
    9        6.063612   0.000000
   10        6.063627   0.000000
   11        7.319956   0.000000
   12        7.319965   0.000000
   13        8.966630   0.000000
   14        8.966649   0.000000
   15       11.671055   0.000000
   16       11.671057   0.000000
   17       12.557179   0.000000
   18       12.557186   0.000000
   19       14.687824   0.000000
   20       14.697321   0.000000
   21       15.335966   0.000000
   22       15.488259   0.000000
   23       16.145953   0.000000
   24       16.509826   0.000000
 
  0.5000000E+00  0.5000000E+00  0.0000000E+00  0.4629630E-02
    1      -20.701535   1.000000
    2      -20.701460   1.000000
    3       -6.656050   1.000000
    4       -6.656025   1.000000
    5       -5.875590   1.000000
    6       -5.875579   1.000000
    7       -5.561100   1.000000
    8       -5.561085   1.000000
    9        5.631285   0.000000
   10        5.631297   0.000000
   11        6.942344   0.000000
   12        6.942361   0.000000
   13        9.723237   0.000000
   14        9.723273   0.000000
   15       13.349080   0.000000
   16       13.351716   0.000000
   17       13.496738   0.000000
   18       13.524823   0.000000
   19       14.409557   0.000000
   20       14.468972   0.000000
   21       15.056341   0.000000
   22       15.062609   0.000000
   23       15.213558   0.000000
   24       15.702986   0.000000
 
 -0.3333333E+00  0.5000000E+00 -0.6938894E-17  0.4629630E-02
    1      -20.714179   1.000000
    2      -20.714105   1.000000
    3       -6.573574   1.000000
    4       -6.573548   1.000000
    5       -5.880001   1.000000
    6       -5.879977   1.000000
    7       -5.557217   1.000000
    8       -5.557192   1.000000
    9        6.063612   0.000000
   10        6.063627   0.000000
   11        7.319956   0.000000
   12        7.319965   0.000000
   13        8.966630   0.000000
   14        8.966652   0.000000
   15       11.671056   0.000000
   16       11.671533   0.000000
   17       12.557176   0.000000
   18       12.557196   0.000000
   19       14.686062   0.000000
   20       14.863963   0.000000
   21       15.333096   0.000000
   22       15.572091   0.000000
   23       16.203430   0.000000
   24       17.467361   0.000000
 
 -0.1666667E+00  0.5000000E+00  0.1387779E-16  0.4629630E-02
    1      -20.738163   1.000000
    2      -20.738090   1.000000
    3       -6.620313   1.000000
    4       -6.620286   1.000000
    5       -5.762099   1.000000
    6       -5.762077   1.000000
    7       -5.398772   1.000000
    8       -5.398749   1.000000
    9        6.288865   0.000000
   10        6.288867   0.000000
   11        7.673626   0.000000
   12        7.673658   0.000000
   13        8.929365   0.000000
   14        8.929366   0.000000
   15       10.068070   0.000000
   16       10.068082   0.000000
   17       12.972111   0.000000
   18       12.972206   0.000000
   19       14.432705   0.000000
   20       14.460978   0.000000
   21       14.923653   0.000000
   22       14.949126   0.000000
   23       15.235894   0.000000
   24       15.457369   0.000000
 
 -0.3851860E-33 -0.3333333E+00  0.1387779E-16  0.4629630E-02
    1      -20.789341   1.000000
    2      -20.789269   1.000000
    3       -6.468059   1.000000
    4       -6.468030   1.000000
    5       -5.580809   1.000000
    6       -5.580794   1.000000
    7       -5.228049   1.000000
    8       -5.228031   1.000000
    9        5.294257   0.000000
   10        5.294264   0.000000
   11        8.235923   0.000000
   12        8.235950   0.000000
   13        9.762761   0.000000
   14        9.762767   0.000000
   15        9.772521   0.000000
   16        9.772526   0.000000
   17       12.718025   0.000000
   18       12.718030   0.000000
   19       12.737346   0.000000
   20       12.737351   0.000000
   21       12.957942   0.000000
   22       12.957973   0.000000
   23       17.743308   0.000000
   24       18.348874   0.000000
 
  0.1666667E+00 -0.3333333E+00  0.0000000E+00  0.4629630E-02
    1      -20.751113   1.000000
    2      -20.751040   1.000000
    3       -6.546505   1.000000
    4       -6.546477   1.000000
    5       -5.760946   1.000000
    6       -5.760918   1.000000
    7       -5.358601   1.000000
    8       -5.358569   1.000000
    9        6.173962   0.000000
   10        6.173969   0.000000
   11        7.905840   0.000000
   12        7.905868   0.000000
   13        8.743903   0.000000
   14        8.743905   0.000000
   15       10.031559   0.000000
   16       10.031573   0.000000
   17       12.390743   0.000000
   18       12.390759   0.000000
   19       14.599705   0.000000
   20       14.601303   0.000000
   21       14.644345   0.000000
   22       14.736484   0.000000
   23       15.175033   0.000000
   24       15.204595   0.000000
 
  0.3333333E+00 -0.3333333E+00  0.6961073E-17  0.4629630E-02
    1      -20.714413   1.000000
    2      -20.714340   1.000000
    3       -6.521037   1.000000
    4       -6.521010   1.000000
    5       -5.999875   1.000000
    6       -5.999842   1.000000
    7       -5.523927   1.000000
    8       -5.523887   1.000000
    9        6.880038   0.000000
   10        6.880049   0.000000
   11        7.362381   0.000000
   12        7.362393   0.000000
   13        8.623558   0.000000
   14        8.623570   0.000000
   15       10.875336   0.000000
   16       10.875339   0.000000
   17       12.290977   0.000000
   18       12.290986   0.000000
   19       13.094542   0.000000
   20       13.094558   0.000000
   21       16.914708   0.000000
   22       17.024594   0.000000
   23       17.181388   0.000000
   24       17.770265   0.000000
 
  0.5000000E+00 -0.3333333E+00  0.0000000E+00  0.4629630E-02
    1      -20.714179   1.000000
    2      -20.714105   1.000000
    3       -6.573574   1.000000
    4       -6.573548   1.000000
    5       -5.880000   1.000000
    6       -5.879977   1.000000
    7       -5.557216   1.000000
    8       -5.557192   1.000000
    9        6.063612   0.000000
   10        6.063627   0.000000
   11        7.319955   0.000000
   12        7.319965   0.000000
   13        8.966630   0.000000
   14        8.966650   0.000000
   15       11.671055   0.000000
   16       11.671057   0.000000
   17       12.557177   0.000000
   18       12.557185   0.000000
   19       14.687602   0.000000
   20       14.693419   0.000000
   21       15.310998   0.000000
   22       15.376348   0.000000
   23       16.137068   0.000000
   24       16.430737   0.000000
 
 -0.3333333E+00 -0.3333333E+00  0.5551115E-16  0.4629630E-02
    1      -20.753011   1.000000
    2      -20.752939   1.000000
    3       -6.450109   1.000000
    4       -6.450082   1.000000
    5       -5.739413   1.000000
    6       -5.739402   1.000000
    7       -5.452911   1.000000
    8       -5.452896   1.000000
    9        5.632504   0.000000
   10        5.632524   0.000000
   11        7.396481   0.000000
   12        7.396498   0.000000
   13        8.924479   0.000000
   14        8.924491   0.000000
   15       11.742957   0.000000
   16       11.742964   0.000000
   17       11.814268   0.000000
   18       11.814309   0.000000
   19       13.699583   0.000000
   20       13.700152   0.000000
   21       17.132591   0.000000
   22       17.262066   0.000000
   23       17.395691   0.000000
   24       17.812255   0.000000
 
 -0.1666667E+00 -0.3333333E+00  0.0000000E+00  0.4629630E-02
    1      -20.789432   1.000000
    2      -20.789361   1.000000
    3       -6.341161   1.000000
    4       -6.341134   1.000000
    5       -5.618829   1.000000
    6       -5.618814   1.000000
    7       -5.326978   1.000000
    8       -5.326959   1.000000
    9        5.359761   0.000000
   10        5.359780   0.000000
   11        8.015410   0.000000
   12        8.015416   0.000000
   13        9.046359   0.000000
   14        9.046365   0.000000
   15       10.496035   0.000000
   16       10.496047   0.000000
   17       11.569742   0.000000
   18       11.569748   0.000000
   19       13.392340   0.000000
   20       13.392354   0.000000
   21       14.900823   0.000000
   22       14.901663   0.000000
   23       17.952639   0.000000
   24       18.060837   0.000000
 
 -0.5777790E-33 -0.1666667E+00 -0.1387779E-16  0.4629630E-02
    1      -20.863819   1.000000
    2      -20.863749   1.000000
    3       -6.002232   1.000000
    4       -6.002206   1.000000
    5       -5.340544   1.000000
    6       -5.340525   1.000000
    7       -5.150025   1.000000
    8       -5.150006   1.000000
    9        4.021547   0.000000
   10        4.021559   0.000000
   11        8.981322   0.000000
   12        8.981334   0.000000
   13       10.093019   0.000000
   14       10.093026   0.000000
   15       10.101088   0.000000
   16       10.101095   0.000000
   17       11.823205   0.000000
   18       11.823211   0.000000
   19       11.831299   0.000000
   20       11.831304   0.000000
   21       13.928396   0.000000
   22       13.928422   0.000000
   23       15.390007   0.000000
   24       15.390014   0.000000
 
  0.1666667E+00 -0.1666667E+00 -0.3112085E-16  0.4629630E-02
    1      -20.814055   1.000000
    2      -20.813984   1.000000
    3       -6.231287   1.000000
    4       -6.231257   1.000000
    5       -5.559419   1.000000
    6       -5.559388   1.000000
    7       -5.244100   1.000000
    8       -5.244072   1.000000
    9        4.963442   0.000000
   10        4.963456   0.000000
   11        8.416562   0.000000
   12        8.416571   0.000000
   13        9.346862   0.000000
   14        9.346864   0.000000
   15       10.636628   0.000000
   16       10.636642   0.000000
   17       10.744597   0.000000
   18       10.744618   0.000000
   19       13.024727   0.000000
   20       13.024773   0.000000
   21       15.165901   0.000000
   22       15.195380   0.000000
   23       15.852576   0.000000
   24       16.165074   0.000000
 
  0.3333333E+00 -0.1666667E+00 -0.2081668E-16  0.4629630E-02
    1      -20.751113   1.000000
    2      -20.751040   1.000000
    3       -6.546505   1.000000
    4       -6.546476   1.000000
    5       -5.760946   1.000000
    6       -5.760919   1.000000
    7       -5.358600   1.000000
    8       -5.358571   1.000000
    9        6.173962   0.000000
   10        6.173969   0.000000
   11        7.905840   0.000000
   12        7.905868   0.000000
   13        8.743904   0.000000
   14        8.743905   0.000000
   15       10.031560   0.000000
   16       10.031574   0.000000
   17       12.390743   0.000000
   18       12.390756   0.000000
   19       14.599692   0.000000
   20       14.605148   0.000000
   21       14.644360   0.000000
   22       14.656987   0.000000
   23       15.172736   0.000000
   24       15.336343   0.000000
 
  0.5000000E+00 -0.1666667E+00  0.0000000E+00  0.4629630E-02
    1      -20.738163   1.000000
    2      -20.738090   1.000000
    3       -6.620314   1.000000
    4       -6.620286   1.000000
    5       -5.762096   1.000000
    6       -5.762079   1.000000
    7       -5.398769   1.000000
    8       -5.398752   1.000000
    9        6.288864   0.000000
   10        6.288867   0.000000
   11        7.673626   0.000000
   12        7.673658   0.000000
   13        8.929365   0.000000
   14        8.929366   0.000000
   15       10.068070   0.000000
   16       10.068082   0.000000
   17       12.972094   0.000000
   18       12.972142   0.000000
   19       14.430035   0.000000
   20       14.450643   0.000000
   21       14.918049   0.000000
   22       14.927530   0.000000
   23       15.204512   0.000000
   24       16.165020   0.000000
 
 -0.3333333E+00 -0.1666667E+00 -0.2775558E-16  0.4629630E-02
    1      -20.789432   1.000000
    2      -20.789361   1.000000
    3       -6.341163   1.000000
    4       -6.341133   1.000000
    5       -5.618827   1.000000
    6       -5.618816   1.000000
    7       -5.326972   1.000000
    8       -5.326965   1.000000
    9        5.359761   0.000000
   10        5.359780   0.000000
   11        8.015410   0.000000
   12        8.015416   0.000000
   13        9.046359   0.000000
   14        9.046365   0.000000
   15       10.496035   0.000000
   16       10.496047   0.000000
   17       11.569740   0.000000
   18       11.569747   0.000000
   19       13.392340   0.000000
   20       13.392354   0.000000