       N       E                     dE             d eps       ncg     rms          ort
DAV:   1     0.631575617828E+02    0.63158E+02   -0.26611E+03  5184   0.400E+02
DAV:   2     0.202029951590E+02   -0.42955E+02   -0.36374E+02  5184   0.101E+02
DAV:   3     0.168851300669E+02   -0.33179E+01   -0.32091E+01  5184   0.337E+01
DAV:   4     0.166864830080E+02   -0.19865E+00   -0.19532E+00  5184   0.779E+00
DAV:   5     0.166744053160E+02   -0.12078E-01   -0.11975E-01  5184   0.195E+00
SDA:   6     0.785247306980E+00   -0.15889E+02   -0.14445E+01  5184   0.241E+01 0.000E+00
DMP:   7     0.147150351998E+00   -0.63810E+00   -0.23172E+00  5184   0.460E+00-0.252E+00
DMP:   8     0.207876780451E-02   -0.14507E+00   -0.12430E+00  5184   0.177E+00 0.102E+00
DMP:   9    -0.568163573763E-01   -0.58895E-01   -0.27115E-01  5184   0.486E-01-0.116E-01
DMP:  10    -0.735045598680E-01   -0.16688E-01   -0.88965E-02  5184   0.117E-01 0.107E-01
DMP:  11    -0.777521354631E-01   -0.42476E-02   -0.16721E-02  5184   0.296E-02-0.606E-03
DMP:  12    -0.785690770862E-01   -0.81694E-03   -0.58071E-03  5184   0.986E-03-0.627E-04
DMP:  13    -0.788038920548E-01   -0.23481E-03   -0.12029E-03  5184   0.253E-03-0.181E-03
DMP:  14    -0.788670302996E-01   -0.63138E-04   -0.53095E-04  5184   0.861E-04 0.829E-05
DMP:  15    -0.788947480024E-01   -0.27718E-04   -0.15369E-04  5184   0.249E-04 0.242E-05
DMP:  16    -0.789035978842E-01   -0.88499E-05   -0.65779E-05  5184   0.966E-05 0.444E-05
DMP:  17    -0.789070683761E-01   -0.34705E-05   -0.16675E-05  5184   0.237E-05 0.140E-05
DMP:  18    -0.789081082374E-01   -0.10399E-05   -0.62850E-06  5184   0.814E-06 0.798E-06
DMP:  19    -0.789084986775E-01   -0.39044E-06   -0.14157E-06  5184   0.176E-06 0.205E-06
DMP:  20    -0.789085744350E-01   -0.75757E-07   -0.48282E-07  5184   0.682E-07 0.419E-07
   1 F= -.78908574E-01 E0= -.78908574E-01  d E =-.405112E-14  mag=    -0.0000    -0.0000    -0.0000
