<?xml version="1.0" encoding="ISO-8859-1"?>
<modeling>
 <generator>
  <i name="program" type="string">vasp </i>
  <i name="version" type="string">5.4.4.18Apr17-6-g9f103f2a35  </i>
  <i name="subversion" type="string">(build Nov 03 2018 10:20:46) complex            parallel </i>
  <i name="platform" type="string">LinuxIFC </i>
  <i name="date" type="string">2018 12 20 </i>
  <i name="time" type="string">14:39:37 </i>
 </generator>
 <incar>
  <i type="string" name="SYSTEM">   Og_FCC</i>
  <i type="string" name="PREC">accurate</i>
  <i type="string" name="ALGO"> DAMPED</i>
  <i type="logical" name="ADDGRID"> T  </i>
  <i type="logical" name="LSORBIT"> T  </i>
  <i type="int" name="ISPIN">     1</i>
  <i type="int" name="MAXMIX">    50</i>
  <i type="int" name="NELM">    50</i>
  <i type="int" name="NELMDL">    -5</i>
  <i type="int" name="NELMIN">     2</i>
  <i type="int" name="IBRION">    -1</i>
  <i type="int" name="NFREE">     5</i>
  <i name="EDIFF">      0.00000010</i>
  <i name="EDIFFG">      0.00001000</i>
  <i type="int" name="NSW">     1</i>
  <i type="int" name="ISIF">     3</i>
  <i type="int" name="ISYM">     0</i>
  <i name="SYMPREC">      0.00000010</i>
  <i name="ENCUT">    300.00000000</i>
  <i name="POTIM">      0.10000000</i>
  <i type="logical" name="LREAL"> F  </i>
  <i name="TIME">      0.60000000</i>
  <i type="int" name="ISMEAR">     0</i>
  <i name="SIGMA">      0.05000000</i>
  <i type="int" name="NWRITE">     2</i>
  <i type="logical" name="LWAVE"> T  </i>
  <i type="logical" name="LCHARG"> F  </i>
  <i type="logical" name="LVTOT"> F  </i>
  <i type="logical" name="GGA_COMPAT"> F  </i>
  <v type="int" name="KPOINT_BSE">    -1     0     0     0</v>
  <i type="int" name="NELM">    50</i>
  <i type="logical" name="LHFCALC"> T  </i>
  <i type="string" name="GGA"> PE</i>
  <i type="int" name="NKRED">     2</i>
  <i name="HFSCREEN">      0.20000000</i>
  <i type="string" name="PRECFOCK">normal</i>
 </incar>
 <structure name="primitive_cell" >
  <crystal>
   <varray name="basis" >
    <v>       4.00933418       0.00000000       0.00000000 </v>
    <v>       2.00466709       3.47218525      -0.00000000 </v>
    <v>       2.00466709       1.15739508       3.27360765 </v>
   </varray>
   <i name="volume">     45.57238633 </i>
   <varray name="rec_basis" >
    <v>       0.24941797      -0.14400153      -0.10182446 </v>
    <v>       0.00000000       0.28800307      -0.10182446 </v>
    <v>      -0.00000000       0.00000000       0.30547338 </v>
   </varray>
  </crystal>
  <varray name="positions" >
   <v>       0.00000000       0.00000000       0.00000000 </v>
  </varray>
 </structure>
 <varray name="primitive_index" >
  <v type="int" >        1 </v>
 </varray>
 <kpoints>
  <generation param="Gamma">
   <v type="int" name="divisions">       6        6        6 </v>
   <v name="usershift">      0.00000000       0.00000000       0.00000000 </v>
   <v name="genvec1">      0.16666667      -0.00000000      -0.00000000 </v>
   <v name="genvec2">      0.00000000       0.16666667       0.00000000 </v>
   <v name="genvec3">      0.00000000       0.00000000       0.16666667 </v>
   <v name="shift">      0.00000000       0.00000000       0.00000000 </v>
  </generation>
  <varray name="kpointlist" >
   <v>       0.00000000       0.00000000       0.00000000 </v>
   <v>       0.16666667       0.00000000       0.00000000 </v>
   <v>       0.33333333      -0.00000000       0.00000000 </v>
   <v>       0.50000000       0.00000000       0.00000000 </v>
   <v>      -0.33333333       0.00000000      -0.00000000 </v>
   <v>      -0.16666667      -0.00000000      -0.00000000 </v>
   <v>      -0.00000000       0.16666667      -0.00000000 </v>
   <v>       0.16666667       0.16666667       0.00000000 </v>
   <v>       0.33333333       0.16666667       0.00000000 </v>
   <v>       0.50000000       0.16666667       0.00000000 </v>
   <v>      -0.33333333       0.16666667      -0.00000000 </v>
   <v>      -0.16666667       0.16666667      -0.00000000 </v>
   <v>      -0.00000000       0.33333333       0.00000000 </v>
   <v>       0.16666667       0.33333333       0.00000000 </v>
   <v>       0.33333333       0.33333333       0.00000000 </v>
   <v>       0.50000000       0.33333333       0.00000000 </v>
   <v>      -0.33333333       0.33333333      -0.00000000 </v>
   <v>      -0.16666667       0.33333333      -0.00000000 </v>
   <v>       0.00000000       0.50000000      -0.00000000 </v>
   <v>       0.16666667       0.50000000       0.00000000 </v>
   <v>       0.33333333       0.50000000       0.00000000 </v>
   <v>       0.50000000       0.50000000       0.00000000 </v>
   <v>      -0.33333333       0.50000000      -0.00000000 </v>
   <v>      -0.16666667       0.50000000      -0.00000000 </v>
   <v>       0.00000000      -0.33333333      -0.00000000 </v>
   <v>       0.16666667      -0.33333333       0.00000000 </v>
   <v>       0.33333333      -0.33333333       0.00000000 </v>
   <v>       0.50000000      -0.33333333       0.00000000 </v>
   <v>      -0.33333333      -0.33333333       0.00000000 </v>
   <v>      -0.16666667      -0.33333333       0.00000000 </v>
   <v>       0.00000000      -0.16666667       0.00000000 </v>
   <v>       0.16666667      -0.16666667       0.00000000 </v>
   <v>       0.33333333      -0.16666667       0.00000000 </v>
   <v>       0.50000000      -0.16666667       0.00000000 </v>
   <v>      -0.33333333      -0.16666667      -0.00000000 </v>
   <v>      -0.16666667      -0.16666667       0.00000000 </v>
   <v>       0.00000000       0.00000000       0.16666667 </v>
   <v>       0.16666667       0.00000000       0.16666667 </v>
   <v>       0.33333333      -0.00000000       0.16666667 </v>
   <v>       0.50000000       0.00000000       0.16666667 </v>
   <v>      -0.33333333       0.00000000       0.16666667 </v>
   <v>      -0.16666667       0.00000000       0.16666667 </v>
   <v>      -0.00000000       0.16666667       0.16666667 </v>
   <v>       0.16666667       0.16666667       0.16666667 </v>
   <v>       0.33333333       0.16666667       0.16666667 </v>
   <v>       0.50000000       0.16666667       0.16666667 </v>
   <v>      -0.33333333       0.16666667       0.16666667 </v>
   <v>      -0.16666667       0.16666667       0.16666667 </v>
   <v>      -0.00000000       0.33333333       0.16666667 </v>
   <v>       0.16666667       0.33333333       0.16666667 </v>
   <v>       0.33333333       0.33333333       0.16666667 </v>
   <v>       0.50000000       0.33333333       0.16666667 </v>
   <v>      -0.33333333       0.33333333       0.16666667 </v>
   <v>      -0.16666667       0.33333333       0.16666667 </v>
   <v>       0.00000000       0.50000000       0.16666667 </v>
   <v>       0.16666667       0.50000000       0.16666667 </v>
   <v>       0.33333333       0.50000000       0.16666667 </v>
   <v>       0.50000000       0.50000000       0.16666667 </v>
   <v>      -0.33333333       0.50000000       0.16666667 </v>
   <v>      -0.16666667       0.50000000       0.16666667 </v>
   <v>      -0.00000000      -0.33333333       0.16666667 </v>
   <v>       0.16666667      -0.33333333       0.16666667 </v>
   <v>       0.33333333      -0.33333333       0.16666667 </v>
   <v>       0.50000000      -0.33333333       0.16666667 </v>
   <v>      -0.33333333      -0.33333333       0.16666667 </v>
   <v>      -0.16666667      -0.33333333       0.16666667 </v>
   <v>       0.00000000      -0.16666667       0.16666667 </v>
   <v>       0.16666667      -0.16666667       0.16666667 </v>
   <v>       0.33333333      -0.16666667       0.16666667 </v>
   <v>       0.50000000      -0.16666667       0.16666667 </v>
   <v>      -0.33333333      -0.16666667       0.16666667 </v>
   <v>      -0.16666667      -0.16666667       0.16666667 </v>
   <v>      -0.00000000      -0.00000000       0.33333333 </v>
   <v>       0.16666667      -0.00000000       0.33333333 </v>
   <v>       0.33333333      -0.00000000       0.33333333 </v>
   <v>       0.50000000      -0.00000000       0.33333333 </v>
   <v>      -0.33333333       0.00000000       0.33333333 </v>
   <v>      -0.16666667       0.00000000       0.33333333 </v>
   <v>      -0.00000000       0.16666667       0.33333333 </v>
   <v>       0.16666667       0.16666667       0.33333333 </v>
   <v>       0.33333333       0.16666667       0.33333333 </v>
   <v>       0.50000000       0.16666667       0.33333333 </v>
   <v>      -0.33333333       0.16666667       0.33333333 </v>
   <v>      -0.16666667       0.16666667       0.33333333 </v>
   <v>       0.00000000       0.33333333       0.33333333 </v>
   <v>       0.16666667       0.33333333       0.33333333 </v>
   <v>       0.33333333       0.33333333       0.33333333 </v>
   <v>       0.50000000       0.33333333       0.33333333 </v>
   <v>      -0.33333333       0.33333333       0.33333333 </v>
   <v>      -0.16666667       0.33333333       0.33333333 </v>
   <v>      -0.00000000       0.50000000       0.33333333 </v>
   <v>       0.16666667       0.50000000       0.33333333 </v>
   <v>       0.33333333       0.50000000       0.33333333 </v>
   <v>       0.50000000       0.50000000       0.33333333 </v>
   <v>      -0.33333333       0.50000000       0.33333333 </v>
   <v>      -0.16666667       0.50000000       0.33333333 </v>
   <v>      -0.00000000      -0.33333333       0.33333333 </v>
   <v>       0.16666667      -0.33333333       0.33333333 </v>
   <v>       0.33333333      -0.33333333       0.33333333 </v>
   <v>       0.50000000      -0.33333333       0.33333333 </v>
   <v>      -0.33333333      -0.33333333       0.33333333 </v>
   <v>      -0.16666667      -0.33333333       0.33333333 </v>
   <v>       0.00000000      -0.16666667       0.33333333 </v>
   <v>       0.16666667      -0.16666667       0.33333333 </v>
   <v>       0.33333333      -0.16666667       0.33333333 </v>
   <v>       0.50000000      -0.16666667       0.33333333 </v>
   <v>      -0.33333333      -0.16666667       0.33333333 </v>
   <v>      -0.16666667      -0.16666667       0.33333333 </v>
   <v>       0.00000000       0.00000000       0.50000000 </v>
   <v>       0.16666667       0.00000000       0.50000000 </v>
   <v>       0.33333333      -0.00000000       0.50000000 </v>
   <v>       0.50000000      -0.00000000       0.50000000 </v>
   <v>      -0.33333333       0.00000000       0.50000000 </v>
   <v>      -0.16666667      -0.00000000       0.50000000 </v>
   <v>       0.00000000       0.16666667       0.50000000 </v>
   <v>       0.16666667       0.16666667       0.50000000 </v>
   <v>       0.33333333       0.16666667       0.50000000 </v>
   <v>       0.50000000       0.16666667       0.50000000 </v>
   <v>      -0.33333333       0.16666667       0.50000000 </v>
   <v>      -0.16666667       0.16666667       0.50000000 </v>
   <v>       0.00000000       0.33333333       0.50000000 </v>
   <v>       0.16666667       0.33333333       0.50000000 </v>
   <v>       0.33333333       0.33333333       0.50000000 </v>
   <v>       0.50000000       0.33333333       0.50000000 </v>
   <v>      -0.33333333       0.33333333       0.50000000 </v>
   <v>      -0.16666667       0.33333333       0.50000000 </v>
   <v>      -0.00000000       0.50000000       0.50000000 </v>
   <v>       0.16666667       0.50000000       0.50000000 </v>
   <v>       0.33333333       0.50000000       0.50000000 </v>
   <v>       0.50000000       0.50000000       0.50000000 </v>
   <v>      -0.33333333       0.50000000       0.50000000 </v>
   <v>      -0.16666667       0.50000000       0.50000000 </v>
   <v>       0.00000000      -0.33333333       0.50000000 </v>
   <v>       0.16666667      -0.33333333       0.50000000 </v>
   <v>       0.33333333      -0.33333333       0.50000000 </v>
   <v>       0.50000000      -0.33333333       0.50000000 </v>
   <v>      -0.33333333      -0.33333333       0.50000000 </v>
   <v>      -0.16666667      -0.33333333       0.50000000 </v>
   <v>       0.00000000      -0.16666667       0.50000000 </v>
   <v>       0.16666667      -0.16666667       0.50000000 </v>
   <v>       0.33333333      -0.16666667       0.50000000 </v>
   <v>       0.50000000      -0.16666667       0.50000000 </v>
   <v>      -0.33333333      -0.16666667       0.50000000 </v>
   <v>      -0.16666667      -0.16666667       0.50000000 </v>
   <v>       0.00000000       0.00000000      -0.33333333 </v>
   <v>       0.16666667      -0.00000000      -0.33333333 </v>
   <v>       0.33333333      -0.00000000      -0.33333333 </v>
   <v>       0.50000000       0.00000000      -0.33333333 </v>
   <v>      -0.33333333       0.00000000      -0.33333333 </v>
   <v>      -0.16666667       0.00000000      -0.33333333 </v>
   <v>       0.00000000       0.16666667      -0.33333333 </v>
   <v>       0.16666667       0.16666667      -0.33333333 </v>
   <v>       0.33333333       0.16666667      -0.33333333 </v>
   <v>       0.50000000       0.16666667      -0.33333333 </v>
   <v>      -0.33333333       0.16666667      -0.33333333 </v>
   <v>      -0.16666667       0.16666667      -0.33333333 </v>
   <v>       0.00000000       0.33333333      -0.33333333 </v>
   <v>       0.16666667       0.33333333      -0.33333333 </v>
   <v>       0.33333333       0.33333333      -0.33333333 </v>
   <v>       0.50000000       0.33333333      -0.33333333 </v>
   <v>      -0.33333333       0.33333333      -0.33333333 </v>
   <v>      -0.16666667       0.33333333      -0.33333333 </v>
   <v>      -0.00000000       0.50000000      -0.33333333 </v>
   <v>       0.16666667       0.50000000      -0.33333333 </v>
   <v>       0.33333333       0.50000000      -0.33333333 </v>
   <v>       0.50000000       0.50000000      -0.33333333 </v>
   <v>      -0.33333333       0.50000000      -0.33333333 </v>
   <v>      -0.16666667       0.50000000      -0.33333333 </v>
   <v>       0.00000000      -0.33333333      -0.33333333 </v>
   <v>       0.16666667      -0.33333333      -0.33333333 </v>
   <v>       0.33333333      -0.33333333      -0.33333333 </v>
   <v>       0.50000000      -0.33333333      -0.33333333 </v>
   <v>      -0.33333333      -0.33333333      -0.33333333 </v>
   <v>      -0.16666667      -0.33333333      -0.33333333 </v>
   <v>       0.00000000      -0.16666667      -0.33333333 </v>
   <v>       0.16666667      -0.16666667      -0.33333333 </v>
   <v>       0.33333333      -0.16666667      -0.33333333 </v>
   <v>       0.50000000      -0.16666667      -0.33333333 </v>
   <v>      -0.33333333      -0.16666667      -0.33333333 </v>
   <v>      -0.16666667      -0.16666667      -0.33333333 </v>
   <v>       0.00000000      -0.00000000      -0.16666667 </v>
   <v>       0.16666667      -0.00000000      -0.16666667 </v>
   <v>       0.33333333      -0.00000000      -0.16666667 </v>
   <v>       0.50000000       0.00000000      -0.16666667 </v>
   <v>      -0.33333333       0.00000000      -0.16666667 </v>
   <v>      -0.16666667      -0.00000000      -0.16666667 </v>
   <v>      -0.00000000       0.16666667      -0.16666667 </v>
   <v>       0.16666667       0.16666667      -0.16666667 </v>
   <v>       0.33333333       0.16666667      -0.16666667 </v>
   <v>       0.50000000       0.16666667      -0.16666667 </v>
   <v>      -0.33333333       0.16666667      -0.16666667 </v>
   <v>      -0.16666667       0.16666667      -0.16666667 </v>
   <v>       0.00000000       0.33333333      -0.16666667 </v>
   <v>       0.16666667       0.33333333      -0.16666667 </v>
   <v>       0.33333333       0.33333333      -0.16666667 </v>
   <v>       0.50000000       0.33333333      -0.16666667 </v>
   <v>      -0.33333333       0.33333333      -0.16666667 </v>
   <v>      -0.16666667       0.33333333      -0.16666667 </v>
   <v>      -0.00000000       0.50000000      -0.16666667 </v>
   <v>       0.16666667       0.50000000      -0.16666667 </v>
   <v>       0.33333333       0.50000000      -0.16666667 </v>
   <v>       0.50000000       0.50000000      -0.16666667 </v>
   <v>      -0.33333333       0.50000000      -0.16666667 </v>
   <v>      -0.16666667       0.50000000      -0.16666667 </v>
   <v>       0.00000000      -0.33333333      -0.16666667 </v>
   <v>       0.16666667      -0.33333333      -0.16666667 </v>
   <v>       0.33333333      -0.33333333      -0.16666667 </v>
   <v>       0.50000000      -0.33333333      -0.16666667 </v>
   <v>      -0.33333333      -0.33333333      -0.16666667 </v>
   <v>      -0.16666667      -0.33333333      -0.16666667 </v>
   <v>      -0.00000000      -0.16666667      -0.16666667 </v>
   <v>       0.16666667      -0.16666667      -0.16666667 </v>
   <v>       0.33333333      -0.16666667      -0.16666667 </v>
   <v>       0.50000000      -0.16666667      -0.16666667 </v>
   <v>      -0.33333333      -0.16666667      -0.16666667 </v>
   <v>      -0.16666667      -0.16666667      -0.16666667 </v>
  </varray>
  <varray name="weights" >
   <v>       0.00462963 </v>
   <v>       0.00462963 </v>
   <v>       0.00462963 </v>
   <v>       0.00462963 </v>
   <v>       0.00462963 </v>
   <v>       0.00462963 </v>
   <v>       0.00462963 </v>
   <v>       0.00462963 </v>
   <v>       0.00462963 </v>
   <v>       0.00462963 </v>
   <v>       0.00462963 </v>
   <v>       0.00462963 </v>
   <v>       0.00462963 </v>
   <v>       0.00462963 </v>
   <v>       0.00462963 </v>
   <v>       0.00462963 </v>
   <v>       0.00462963 </v>
   <v>       0.00462963 </v>
   <v>       0.00462963 </v>
   <v>       0.00462963 </v>
   <v>       0.00462963 </v>
   <v>       0.00462963 </v>
   <v>       0.00462963 </v>
   <v>       0.00462963 </v>
   <v>       0.00462963 </v>
   <v>       0.00462963 </v>
   <v>       0.00462963 </v>
   <v>       0.00462963 </v>
   <v>       0.00462963 </v>
   <v>       0.00462963 </v>
   <v>       0.00462963 </v>
   <v>       0.00462963 </v>
   <v>       0.00462963 </v>
   <v>       0.00462963 </v>
   <v>       0.00462963 </v>
   <v>       0.00462963 </v>
   <v>       0.00462963 </v>
   <v>       0.00462963 </v>
   <v>       0.00462963 </v>
   <v>       0.00462963 </v>
   <v>       0.00462963 </v>
   <v>       0.00462963 </v>
   <v>       0.00462963 </v>
   <v>       0.00462963 </v>
   <v>       0.00462963 </v>
   <v>       0.00462963 </v>
   <v>       0.00462963 </v>
   <v>       0.00462963 </v>
   <v>       0.00462963 </v>
   <v>       0.00462963 </v>
   <v>       0.00462963 </v>
   <v>       0.00462963 </v>
   <v>       0.00462963 </v>
   <v>       0.00462963 </v>
   <v>       0.00462963 </v>
   <v>       0.00462963 </v>
   <v>       0.00462963 </v>
   <v>       0.00462963 </v>
   <v>       0.00462963 </v>
   <v>       0.00462963 </v>
   <v>       0.00462963 </v>
   <v>       0.00462963 </v>
   <v>       0.00462963 </v>
   <v>       0.00462963 </v>
   <v>       0.00462963 </v>
   <v>       0.00462963 </v>
   <v>       0.00462963 </v>
   <v>       0.00462963 </v>
   <v>       0.00462963 </v>
   <v>       0.00462963 </v>
   <v>       0.00462963 </v>
   <v>       0.00462963 </v>
   <v>       0.00462963 </v>
   <v>       0.00462963 </v>
   <v>       0.00462963 </v>
   <v>       0.00462963 </v>
   <v>       0.00462963 </v>
   <v>       0.00462963 </v>
   <v>       0.00462963 </v>
   <v>       0.00462963 </v>
   <v>       0.00462963 </v>
   <v>       0.00462963 </v>
   <v>       0.00462963 </v>
   <v>       0.00462963 </v>
   <v>       0.00462963 </v>
   <v>       0.00462963 </v>
   <v>       0.00462963 </v>
   <v>       0.00462963 </v>
   <v>       0.00462963 </v>
   <v>       0.00462963 </v>
   <v>       0.00462963 </v>
   <v>       0.00462963 </v>
   <v>       0.00462963 </v>
   <v>       0.00462963 </v>
   <v>       0.00462963 </v>
   <v>       0.00462963 </v>
   <v>       0.00462963 </v>
   <v>       0.00462963 </v>
   <v>       0.00462963 </v>
   <v>       0.00462963 </v>
   <v>       0.00462963 </v>
   <v>       0.00462963 </v>
   <v>       0.00462963 </v>
   <v>       0.00462963 </v>
   <v>       0.00462963 </v>
   <v>       0.00462963 </v>
   <v>       0.00462963 </v>
   <v>       0.00462963 </v>
   <v>       0.00462963 </v>
   <v>       0.00462963 </v>
   <v>       0.00462963 </v>
   <v>       0.00462963 </v>
   <v>       0.00462963 </v>
   <v>       0.00462963 </v>
   <v>       0.00462963 </v>
   <v>       0.00462963 </v>
   <v>       0.00462963 </v>
   <v>       0.00462963 </v>
   <v>       0.00462963 </v>
   <v>       0.00462963 </v>
   <v>       0.00462963 </v>
   <v>       0.00462963 </v>
   <v>       0.00462963 </v>
   <v>       0.00462963 </v>
   <v>       0.00462963 </v>
   <v>       0.00462963 </v>
   <v>       0.00462963 </v>
   <v>       0.00462963 </v>
   <v>       0.00462963 </v>
   <v>       0.00462963 </v>
   <v>       0.00462963 </v>
   <v>       0.00462963 </v>
   <v>       0.00462963 </v>
   <v>       0.00462963 </v>
   <v>       0.00462963 </v>
   <v>       0.00462963 </v>
   <v>       0.00462963 </v>
   <v>       0.00462963 </v>
   <v>       0.00462963 </v>
   <v>       0.00462963 </v>
   <v>       0.00462963 </v>
   <v>       0.00462963 </v>
   <v>       0.00462963 </v>
   <v>       0.00462963 </v>
   <v>       0.00462963 </v>
   <v>       0.00462963 </v>
   <v>       0.00462963 </v>
   <v>       0.00462963 </v>
   <v>       0.00462963 </v>
   <v>       0.00462963 </v>
   <v>       0.00462963 </v>
   <v>       0.00462963 </v>
   <v>       0.00462963 </v>
   <v>       0.00462963 </v>
   <v>       0.00462963 </v>
   <v>       0.00462963 </v>
   <v>       0.00462963 </v>
   <v>       0.00462963 </v>
   <v>       0.00462963 </v>
   <v>       0.00462963 </v>
   <v>       0.00462963 </v>
   <v>       0.00462963 </v>
   <v>       0.00462963 </v>
   <v>       0.00462963 </v>
   <v>       0.00462963 </v>
   <v>       0.00462963 </v>
   <v>       0.00462963 </v>
   <v>       0.00462963 </v>
   <v>       0.00462963 </v>
   <v>       0.00462963 </v>
   <v>       0.00462963 </v>
   <v>       0.00462963 </v>
   <v>       0.00462963 </v>
   <v>       0.00462963 </v>
   <v>       0.00462963 </v>
   <v>       0.00462963 </v>
   <v>       0.00462963 </v>
   <v>       0.00462963 </v>
   <v>       0.00462963 </v>
   <v>       0.00462963 </v>
   <v>       0.00462963 </v>
   <v>       0.00462963 </v>
   <v>       0.00462963 </v>
   <v>       0.00462963 </v>
   <v>       0.00462963 </v>
   <v>       0.00462963 </v>
   <v>       0.00462963 </v>
   <v>       0.00462963 </v>
   <v>       0.00462963 </v>
   <v>       0.00462963 </v>
   <v>       0.00462963 </v>
   <v>       0.00462963 </v>
   <v>       0.00462963 </v>
   <v>       0.00462963 </v>
   <v>       0.00462963 </v>
   <v>       0.00462963 </v>
   <v>       0.00462963 </v>
   <v>       0.00462963 </v>
   <v>       0.00462963 </v>
   <v>       0.00462963 </v>
   <v>       0.00462963 </v>
   <v>       0.00462963 </v>
   <v>       0.00462963 </v>
   <v>       0.00462963 </v>
   <v>       0.00462963 </v>
   <v>       0.00462963 </v>
   <v>       0.00462963 </v>
   <v>       0.00462963 </v>
   <v>       0.00462963 </v>
   <v>       0.00462963 </v>
   <v>       0.00462963 </v>
   <v>       0.00462963 </v>
   <v>       0.00462963 </v>
   <v>       0.00462963 </v>
   <v>       0.00462963 </v>
   <v>       0.00462963 </v>
  </varray>
 </kpoints>
 <parameters>
  <separator name="general" >
   <i type="string" name="SYSTEM">Og_FCC</i>
   <i type="logical" name="LCOMPAT"> F  </i>
  </separator>
  <separator name="electronic" >
   <i type="string" name="PREC">accura</i>
   <i name="ENMAX">    300.00000000</i>
   <i name="ENAUG">    554.76500000</i>
   <i name="EDIFF">      0.00000010</i>
   <i type="int" name="IALGO">    53</i>
   <i type="int" name="IWAVPR">    10</i>
   <i type="int" name="NBANDS">    18</i>
   <i name="NELECT">      8.00000000</i>
   <i type="int" name="TURBO">     0</i>
   <i type="int" name="IRESTART">     0</i>
   <i type="int" name="NREBOOT">     0</i>
   <i type="int" name="NMIN">     0</i>
   <i name="EREF">      0.00000000</i>
   <separator name="electronic smearing" >
    <i type="int" name="ISMEAR">     0</i>
    <i name="SIGMA">      0.05000000</i>
    <i name="KSPACING">      0.50000000</i>
    <i type="logical" name="KGAMMA"> T  </i>
   </separator>
   <separator name="electronic projectors" >
    <i type="logical" name="LREAL"> F  </i>
    <v name="ROPT">      0.00000000</v>
    <i type="int" name="LMAXPAW">  -100</i>
    <i type="int" name="LMAXMIX">     2</i>
    <i type="logical" name="NLSPLINE"> F  </i>
   </separator>
   <separator name="electronic startup" >
    <i type="int" name="ISTART">     0</i>
    <i type="int" name="ICHARG">     2</i>
    <i type="int" name="INIWAV">     1</i>
   </separator>
   <separator name="electronic spin" >
    <i type="int" name="ISPIN">     1</i>
    <i type="logical" name="LNONCOLLINEAR"> T  </i>
    <v name="MAGMOM">      1.00000000      1.00000000      1.00000000</v>
    <i name="NUPDOWN">     -1.00000000</i>
    <i type="logical" name="LSORBIT"> T  </i>
    <v name="SAXIS">      0.00000000      0.00000000      1.00000000</v>
    <i type="logical" name="LSPIRAL"> F  </i>
    <v name="QSPIRAL">      0.00000000      0.00000000      0.00000000</v>
    <i type="logical" name="LZEROZ"> F  </i>
   </separator>
   <separator name="electronic exchange-correlation" >
    <i type="logical" name="LASPH"> F  </i>
    <i type="logical" name="LMETAGGA"> F  </i>
   </separator>
   <separator name="electronic convergence" >
    <i type="int" name="NELM">    50</i>
    <i type="int" name="NELMDL">    -5</i>
    <i type="int" name="NELMIN">     2</i>
    <i name="ENINI">    300.00000000</i>
    <separator name="electronic convergence detail" >
     <i type="logical" name="LDIAG"> T  </i>
     <i type="logical" name="LSUBROT"> F  </i>
     <i name="WEIMIN">      0.00000000</i>
     <i name="EBREAK">      0.00000000</i>
     <i name="DEPER">      0.30000000</i>
     <i type="int" name="NRMM">     4</i>
     <i name="TIME">      0.60000000</i>
    </separator>
   </separator>
   <separator name="electronic mixer" >
    <i name="AMIX">      0.40000000</i>
    <i name="BMIX">      1.00000000</i>
    <i name="AMIN">      0.10000000</i>
    <i name="AMIX_MAG">      1.60000000</i>
    <i name="BMIX_MAG">      1.00000000</i>
    <separator name="electronic mixer details" >
     <i type="int" name="IMIX">     4</i>
     <i type="logical" name="MIXFIRST"> F  </i>
     <i type="int" name="MAXMIX">    50</i>
     <i name="WC">    100.00000000</i>
     <i type="int" name="INIMIX">     1</i>
     <i type="int" name="MIXPRE">     1</i>
     <i type="int" name="MREMOVE">     5</i>
    </separator>
   </separator>
   <separator name="electronic dipolcorrection" >
    <i type="logical" name="LDIPOL"> F  </i>
    <i type="logical" name="LMONO"> F  </i>
    <i type="int" name="IDIPOL">     0</i>
    <i name="EPSILON">      1.00000000</i>
    <v name="DIPOL">   -100.00000000   -100.00000000   -100.00000000</v>
    <i name="EFIELD">      0.00000000</i>
   </separator>
  </separator>
  <separator name="grids" >
   <i type="int" name="NGX">    24</i>
   <i type="int" name="NGY">    24</i>
   <i type="int" name="NGZ">    24</i>
   <i type="int" name="NGXF">    48</i>
   <i type="int" name="NGYF">    48</i>
   <i type="int" name="NGZF">    48</i>
   <i type="logical" name="ADDGRID"> T  </i>
  </separator>
  <separator name="ionic" >
   <i type="int" name="NSW">     1</i>
   <i type="int" name="IBRION">    -1</i>
   <i type="int" name="MDALGO">     0</i>
   <i type="int" name="ISIF">     3</i>
   <i name="PSTRESS">      0.00000000</i>
   <i name="EDIFFG">      0.00001000</i>
   <i type="int" name="NFREE">     5</i>
   <i name="POTIM">      0.10000000</i>
   <i name="SMASS">     -3.00000000</i>
   <i name="SCALEE">      1.00000000</i>
  </separator>
  <separator name="ionic md" >
   <i name="TEBEG">      0.00010000</i>
   <i name="TEEND">      0.00010000</i>
   <i type="int" name="NBLOCK">     1</i>
   <i type="int" name="KBLOCK">     1</i>
   <i type="int" name="NPACO">   256</i>
   <i name="APACO">     16.00000000</i>
  </separator>
  <separator name="symmetry" >
   <i type="int" name="ISYM">     0</i>
   <i name="SYMPREC">      0.00000010</i>
  </separator>
  <separator name="dos" >
   <i type="int" name="LORBIT">     0</i>
   <v name="RWIGS">     -1.00000000</v>
   <i type="int" name="NEDOS">   301</i>
   <i name="EMIN">     10.00000000</i>
   <i name="EMAX">    -10.00000000</i>
   <i name="EFERMI">      0.00000000</i>
  </separator>
  <separator name="writing" >
   <i type="int" name="NWRITE">     2</i>
   <i type="logical" name="LWAVE"> T  </i>
   <i type="logical" name="LDOWNSAMPLE"> F  </i>
   <i type="logical" name="LCHARG"> F  </i>
   <i type="logical" name="LPARD"> F  </i>
   <i type="logical" name="LVTOT"> F  </i>
   <i type="logical" name="LVHAR"> F  </i>
   <i type="logical" name="LELF"> F  </i>
   <i type="logical" name="LOPTICS"> F  </i>
   <v name="STM">      0.00000000      0.00000000      0.00000000      0.00000000      0.00000000      0.00000000      0.00000000</v>
  </separator>
  <separator name="performance" >
   <i type="int" name="NPAR">     2</i>
   <i type="int" name="NSIM">     4</i>
   <i type="int" name="NBLK">    -1</i>
   <i type="logical" name="LPLANE"> T  </i>
   <i type="logical" name="LSCALAPACK"> T  </i>
   <i type="logical" name="LSCAAWARE"> F  </i>
   <i type="logical" name="LSCALU"> F  </i>
   <i type="logical" name="LASYNC"> F  </i>
   <i type="logical" name="LORBITALREAL"> F  </i>
  </separator>
  <separator name="miscellaneous" >
   <i type="int" name="IDIOT">     3</i>
   <i type="int" name="ISPECIAL">     0</i>
   <i type="logical" name="LMUSIC"> F  </i>
   <v name="POMASS">     83.80000000</v>
   <v name="DARWINR">      0.00000000</v>
   <v name="DARWINV">      1.00000000</v>
   <i type="logical" name="LCORR"> T  </i>
  </separator>
  <i type="logical" name="GGA_COMPAT"> F  </i>
  <i type="logical" name="LBERRY"> F  </i>
  <i type="int" name="ICORELEVEL">     0</i>
  <i type="logical" name="LDAU"> F  </i>
  <i type="int" name="I_CONSTRAINED_M">     0</i>
  <separator name="electronic exchange-correlation" >
   <i type="string" name="GGA">PE</i>
   <i type="int" name="VOSKOWN">     0</i>
   <i type="logical" name="LHFCALC"> T  </i>
   <i type="string" name="PRECFOCK">normal</i>
   <i type="logical" name="LSYMGRAD"> F  </i>
   <i type="logical" name="LHFONE"> F  </i>
   <i type="logical" name="LRHFCALC"> F  </i>
   <i type="logical" name="LTHOMAS"> F  </i>
   <i type="logical" name="LMODELHF"> F  </i>
   <i name="ENCUT4O">     -1.00000000</i>
   <i type="int" name="EXXOEP">     0</i>
   <i type="int" name="FOURORBIT">     0</i>
   <i name="AEXX">      0.25000000</i>
   <i name="HFALPHA">     -1.00000000</i>
   <i name="MCALPHA">      0.00000000</i>
   <i name="ALDAX">      0.75000000</i>
   <i name="AGGAX">      0.75000000</i>
   <i name="ALDAC">      1.00000000</i>
   <i name="AGGAC">      1.00000000</i>
   <i type="int" name="NKREDX">     2</i>
   <i type="int" name="NKREDY">     2</i>
   <i type="int" name="NKREDZ">     2</i>
   <i type="logical" name="SHIFTRED"> F  </i>
   <i type="logical" name="ODDONLY"> F  </i>
   <i type="logical" name="EVENONLY"> F  </i>
   <i type="int" name="LMAXFOCK">     4</i>
   <i type="int" name="NMAXFOCKAE">     1</i>
   <i type="logical" name="LFOCKAEDFT"> F  </i>
   <i name="HFSCREEN">      0.20000000</i>
   <i name="HFSCREENC">      0.20000000</i>
   <i type="int" name="NBANDSGWLOW">     1</i>
  </separator>
  <separator name="vdW DFT" >
   <i type="logical" name="LUSE_VDW"> F  </i>
   <i name="Zab_VDW">     -0.84910000</i>
   <i name="PARAM1">      0.12340000</i>
   <i name="PARAM2">      1.00000000</i>
   <i name="PARAM3">      0.00000000</i>
  </separator>
  <separator name="model GW" >
   <i type="int" name="MODEL_GW">     0</i>
   <i name="MODEL_EPS0">     27.34343180</i>
   <i name="MODEL_ALPHA">      1.00000000</i>
  </separator>
  <separator name="linear response parameters" >
   <i type="logical" name="LEPSILON"> F  </i>
   <i type="logical" name="LRPA"> F  </i>
   <i type="logical" name="LNABLA"> F  </i>
   <i type="logical" name="LVEL"> F  </i>
   <i type="int" name="KINTER">     0</i>
   <i name="CSHIFT">      0.10000000</i>
   <i name="OMEGAMAX">     -1.00000000</i>
   <i name="DEG_THRESHOLD">      0.00200000</i>
   <i name="RTIME">     -0.10000000</i>
   <i name="WPLASMAI">      0.00000000</i>
   <v name="DFIELD">      0.00000000      0.00000000      0.00000000</v>
   <v name="WPLASMA">      0.00000000      0.00000000      0.00000000      0.00000000      0.00000000      0.00000000      0.00000000      0.00000000      0.00000000</v>
  </separator>
  <separator name="orbital magnetization" >
   <i type="logical" name="NUCIND"> F  </i>
   <v name="MAGPOS">      0.00000000      0.00000000      0.00000000</v>
   <i type="logical" name="LNICSALL"> T  </i>
   <i type="logical" name="ORBITALMAG"> F  </i>
   <i type="logical" name="LMAGBLOCH"> F  </i>
   <i type="logical" name="LCHIMAG"> F  </i>
   <i type="logical" name="LGAUGE"> T  </i>
   <i type="int" name="MAGATOM">     0</i>
   <v name="MAGDIPOL">      0.00000000      0.00000000      0.00000000</v>
   <v name="AVECCONST">      0.00000000      0.00000000      0.00000000</v>
  </separator>
  <separator name="response functions" >
   <i type="logical" name="LADDER"> F  </i>
   <i type="logical" name="LRPAFORCE"> F  </i>
   <i type="logical" name="LFXC"> F  </i>
   <i type="logical" name="LHARTREE"> T  </i>
   <i type="int" name="IBSE">     0</i>
   <v type="int" name="KPOINT">    -1     0     0     0</v>
   <i type="logical" name="LTCTE"> F  </i>
   <i type="logical" name="LTETE"> F  </i>
   <i type="logical" name="LTRIPLET"> F  </i>
   <i type="logical" name="LFXCEPS"> F  </i>
   <i type="logical" name="LFXHEG"> F  </i>
   <i type="int" name="NATURALO">     2</i>
   <i type="logical" name="L2ORDER"> F  </i>
   <i type="logical" name="LMP2LT"> F  </i>
   <i type="logical" name="LUSEW"> F  </i>
   <i name="ENCUTGW">     -2.00000000</i>
   <i name="ENCUTGWSOFT">     -2.00000000</i>
   <i name="ENCUTLF">     -1.00000000</i>
   <i type="int" name="LMAXMP2">    -1</i>
   <i name="SCISSOR">      0.00000000</i>
   <i type="int" name="NOMEGA">     0</i>
   <i type="int" name="NOMEGAR">     0</i>
   <i type="int" name="NBANDSGW">    -1</i>
   <i type="int" name="NBANDSO">    -1</i>
   <i type="int" name="NBANDSV">    -1</i>
   <i type="int" name="NELM">    50</i>
   <i type="int" name="NELMHF">     1</i>
   <i type="int" name="DIM">     3</i>
   <i type="int" name="ANTIRES">     0</i>
   <i name="OMEGAMAX">    -30.00000000</i>
   <i name="OMEGAMIN">    -30.00000000</i>
   <i name="OMEGATL">   -200.00000000</i>
   <i type="int" name="OMEGAGRID">   140</i>
   <i name="CSHIFT">     -0.10000000</i>
   <i type="logical" name="SELFENERGY"> F  </i>
   <i type="logical" name="LSPECTRAL"> F  </i>
   <i type="logical" name="LSPECTRALGW"> F  </i>
   <i type="logical" name="LSINGLES"> F  </i>
   <i type="logical" name="LFERMIGW"> F  </i>
   <i type="logical" name="ODDONLYGW"> F  </i>
   <i type="logical" name="EVENONLYGW"> F  </i>
   <i type="int" name="NKREDLFX">     1</i>
   <i type="int" name="NKREDLFY">     1</i>
   <i type="int" name="NKREDLFZ">     1</i>
   <i type="int" name="MAXMEM">  2800</i>
   <i type="int" name="TELESCOPE">     0</i>
   <i type="int" name="TAUPAR">     1</i>
   <i type="int" name="OMEGAPAR">    -1</i>
   <i name="LAMBDA">      1.00000000</i>
  </separator>
  <separator name="External order field" >
   <i name="OFIELD_KAPPA">      0.00000000</i>
   <v name="OFIELD_K">      0.00000000      0.00000000      0.00000000</v>
   <i name="OFIELD_Q6_NEAR">      0.00000000</i>
   <i name="OFIELD_Q6_FAR">      0.00000000</i>
   <i name="OFIELD_A">      0.00000000</i>
  </separator>
 </parameters>
 <atominfo>
  <atoms>       1 </atoms>
  <types>       1 </types>
  <array name="atoms" >
   <dimension dim="1">ion</dimension>
   <field type="string">element</field>
   <field type="int">atomtype</field>
   <set>
    <rc><c>Kr</c><c>   1</c></rc>
   </set>
  </array>
  <array name="atomtypes" >
   <dimension dim="1">type</dimension>
   <field type="int">atomspertype</field>
   <field type="string">element</field>
   <field>mass</field>
   <field>valence</field>
   <field type="string">pseudopotential</field>
   <set>
    <rc><c>   1</c><c>Kr</c><c>     83.80000000</c><c>      8.00000000</c><c>  PAW_PBE Kr_GW 21Aug2013               </c></rc>
   </set>
  </array>
 </atominfo>
 <structure name="initialpos" >
  <crystal>
   <varray name="basis" >
    <v>       4.00933418       0.00000000       0.00000000 </v>
    <v>       2.00466709       3.47218525      -0.00000000 </v>
    <v>       2.00466709       1.15739508       3.27360765 </v>
   </varray>
   <i name="volume">     45.57238633 </i>
   <varray name="rec_basis" >
    <v>       0.24941797      -0.14400153      -0.10182446 </v>
    <v>       0.00000000       0.28800307      -0.10182446 </v>
    <v>      -0.00000000       0.00000000       0.30547338 </v>
   </varray>
  </crystal>
  <varray name="positions" >
   <v>       0.00000000       0.00000000       0.00000000 </v>
  </varray>
  <varray name="velocities" >
   <v>       0.00000000       0.00000000       0.00000000 </v>
  </varray>
 </structure>
 <calculation>
  <scstep>
   <time name="total">    1.37    1.37</time>
   <energy>
    <i name="alphaZ">      9.21045435 </i>
    <i name="ewald">   -372.60190661 </i>
    <i name="hartreedc">   -100.31978674 </i>
    <i name="XCdc">     11.07483585 </i>
    <i name="pawpsdc">    413.61296143 </i>
    <i name="pawaedc">   -409.58412225 </i>
    <i name="eentropy">     -0.00076408 </i>
    <i name="bandstr">      9.99855001 </i>
    <i name="atom">    506.20215197 </i>
    <i name="e_fr_energy">     67.59237393 </i>
    <i name="e_wo_entrp">     67.59313801 </i>
    <i name="e_0_energy">     67.59275597 </i>
   </energy>
  </scstep>
  <scstep>
   <time name="total">    1.40    1.41</time>
   <energy>
    <i name="e_fr_energy">     21.95826524 </i>
    <i name="e_wo_entrp">     21.95835157 </i>
    <i name="e_0_energy">     21.95830841 </i>
   </energy>
  </scstep>
  <scstep>
   <time name="total">    1.31    1.31</time>
   <energy>
    <i name="e_fr_energy">     17.09003948 </i>
    <i name="e_wo_entrp">     17.09003948 </i>
    <i name="e_0_energy">     17.09003948 </i>
   </energy>
  </scstep>
  <scstep>
   <time name="total">    1.35    1.36</time>
   <energy>
    <i name="e_fr_energy">     16.73563178 </i>
    <i name="e_wo_entrp">     16.73563178 </i>
    <i name="e_0_energy">     16.73563178 </i>
   </energy>
  </scstep>
  <scstep>
   <time name="total">    1.44    1.44</time>
   <energy>
    <i name="e_fr_energy">     16.70985978 </i>
    <i name="e_wo_entrp">     16.70985978 </i>
    <i name="e_0_energy">     16.70985978 </i>
   </energy>
  </scstep>
  <scstep>
   <time name="total">   22.59   22.62</time>
   <energy>
    <i name="e_fr_energy">      0.76392416 </i>
    <i name="e_wo_entrp">      0.76392416 </i>
    <i name="e_0_energy">      0.76392416 </i>
   </energy>
  </scstep>
  <scstep>
   <time name="total">   22.58   22.62</time>
   <energy>
    <i name="e_fr_energy">      0.17069342 </i>
    <i name="e_wo_entrp">      0.17069342 </i>
    <i name="e_0_energy">      0.17069342 </i>
   </energy>
  </scstep>
  <scstep>
   <time name="total">   22.57   22.60</time>
   <energy>
    <i name="e_fr_energy">      0.00942391 </i>
    <i name="e_wo_entrp">      0.00942391 </i>
    <i name="e_0_energy">      0.00942391 </i>
   </energy>
  </scstep>
  <scstep>
   <time name="total">   22.55   22.58</time>
   <energy>
    <i name="e_fr_energy">     -0.04095453 </i>
    <i name="e_wo_entrp">     -0.04095453 </i>
    <i name="e_0_energy">     -0.04095453 </i>
   </energy>
  </scstep>
  <scstep>
   <time name="total">   22.53   22.57</time>
   <energy>
    <i name="e_fr_energy">     -0.06062665 </i>
    <i name="e_wo_entrp">     -0.06062665 </i>
    <i name="e_0_energy">     -0.06062665 </i>
   </energy>
  </scstep>
  <scstep>
   <time name="total">   22.47   22.50</time>
   <energy>
    <i name="e_fr_energy">     -0.06467735 </i>
    <i name="e_wo_entrp">     -0.06467735 </i>
    <i name="e_0_energy">     -0.06467735 </i>
   </energy>
  </scstep>
  <scstep>
   <time name="total">   22.48   22.51</time>
   <energy>
    <i name="e_fr_energy">     -0.06590071 </i>
    <i name="e_wo_entrp">     -0.06590071 </i>
    <i name="e_0_energy">     -0.06590071 </i>
   </energy>
  </scstep>
  <scstep>
   <time name="total">   22.43   22.47</time>
   <energy>
    <i name="e_fr_energy">     -0.06614801 </i>
    <i name="e_wo_entrp">     -0.06614801 </i>
    <i name="e_0_energy">     -0.06614801 </i>
   </energy>
  </scstep>
  <scstep>
   <time name="total">   22.45   22.49</time>
   <energy>
    <i name="e_fr_energy">     -0.06622861 </i>
    <i name="e_wo_entrp">     -0.06622861 </i>
    <i name="e_0_energy">     -0.06622861 </i>
   </energy>
  </scstep>
  <scstep>
   <time name="total">   22.50   22.53</time>
   <energy>
    <i name="e_fr_energy">     -0.06624899 </i>
    <i name="e_wo_entrp">     -0.06624899 </i>
    <i name="e_0_energy">     -0.06624899 </i>
   </energy>
  </scstep>
  <scstep>
   <time name="total">   22.45   22.49</time>
   <energy>
    <i name="e_fr_energy">     -0.06625623 </i>
    <i name="e_wo_entrp">     -0.06625623 </i>
    <i name="e_0_energy">     -0.06625623 </i>
   </energy>
  </scstep>
  <scstep>
   <time name="total">   22.51   22.55</time>
   <energy>
    <i name="e_fr_energy">     -0.06625876 </i>
    <i name="e_wo_entrp">     -0.06625876 </i>
    <i name="e_0_energy">     -0.06625876 </i>
   </energy>
  </scstep>
  <scstep>
   <time name="total">   22.52   22.55</time>
   <energy>
    <i name="e_fr_energy">     -0.06625968 </i>
    <i name="e_wo_entrp">     -0.06625968 </i>
    <i name="e_0_energy">     -0.06625968 </i>
   </energy>
  </scstep>
  <scstep>
   <time name="total">   22.49   22.53</time>
   <energy>
    <i name="e_fr_energy">     -0.06625999 </i>
    <i name="e_wo_entrp">     -0.06625999 </i>
    <i name="e_0_energy">     -0.06625999 </i>
   </energy>
  </scstep>
  <scstep>
   <time name="total">   44.24   44.31</time>
   <energy>
    <i name="alphaZ">      9.21045435 </i>
    <i name="ewald">   -372.60190661 </i>
    <i name="hartreedc">   -100.81886719 </i>
    <i name="XCdc">     10.97692768 </i>
    <i name="pawpsdc">    416.84114734 </i>
    <i name="pawaedc">   -412.81706837 </i>
    <i name="eentropy">     -0.00000000 </i>
    <i name="bandstr">    -73.87303289 </i>
    <i name="atom">    506.20215197 </i>
    <i name="e_fr_energy">     -0.06626006 </i>
    <i name="e_wo_entrp">     -0.06626006 </i>
    <i name="e_0_energy">     -0.06626006 </i>
   </energy>
  </scstep>
  <structure>
   <crystal>
    <varray name="basis" >
     <v>       4.00933418       0.00000000       0.00000000 </v>
     <v>       2.00466709       3.47218525      -0.00000000 </v>
     <v>       2.00466709       1.15739508       3.27360765 </v>
    </varray>
    <i name="volume">     45.57238633 </i>
    <varray name="rec_basis" >
     <v>       0.24941797      -0.14400153      -0.10182446 </v>
     <v>       0.00000000       0.28800307      -0.10182446 </v>
     <v>      -0.00000000       0.00000000       0.30547338 </v>
    </varray>
   </crystal>
   <varray name="positions" >
    <v>       0.00000000       0.00000000       0.00000000 </v>
   </varray>
  </structure>
  <varray name="forces" >
   <v>       0.00000109       0.00000067       0.00000236 </v>
  </varray>
  <varray name="stress" >
   <v>       6.70315937       0.00003662      -0.00010055 </v>
   <v>       0.00003638       6.70329926      -0.00002027 </v>
   <v>      -0.00010107      -0.00002120       6.70332956 </v>
  </varray>
  <energy>
   <i name="e_fr_energy">     -0.06626006 </i>
   <i name="e_wo_entrp">     -0.06626006 </i>
   <i name="e_0_energy">     -0.00000000 </i>
  </energy>
  <time name="totalsc">  392.15  392.91</time>
  <eigenvalues>
   <array>
    <dimension dim="1">band</dimension>
    <dimension dim="2">kpoint</dimension>
    <dimension dim="3">spin</dimension>
    <field>eigene</field>
    <field>occ</field>
    <set>
     <set comment="spin 1">
      <set comment="kpoint 1">
       <r>  -20.5781    1.0000 </r>
       <r>  -20.5780    1.0000 </r>
       <r>   -5.3727    1.0000 </r>
       <r>   -5.3727    1.0000 </r>
       <r>   -4.6382    1.0000 </r>
       <r>   -4.6382    1.0000 </r>
       <r>   -4.6381    1.0000 </r>
       <r>   -4.6381    1.0000 </r>
       <r>    3.8455    0.0000 </r>
       <r>    3.8455    0.0000 </r>
       <r>   10.4325    0.0000 </r>
       <r>   10.4326    0.0000 </r>
       <r>   10.4326    0.0000 </r>
       <r>   10.4326    0.0000 </r>
       <r>   10.4439    0.0000 </r>
       <r>   10.4440    0.0000 </r>
       <r>   13.0648    0.0000 </r>
       <r>   13.0679    0.0000 </r>
      </set>
      <set comment="kpoint 2">
       <r>  -20.5295    1.0000 </r>
       <r>  -20.5294    1.0000 </r>
       <r>   -5.5814    1.0000 </r>
       <r>   -5.5814    1.0000 </r>
       <r>   -4.9049    1.0000 </r>
       <r>   -4.9049    1.0000 </r>
       <r>   -4.6841    1.0000 </r>
       <r>   -4.6841    1.0000 </r>
       <r>    4.5907    0.0000 </r>
       <r>    4.5907    0.0000 </r>
       <r>    9.5172    0.0000 </r>
       <r>    9.5172    0.0000 </r>
       <r>   10.6656    0.0000 </r>
       <r>   10.6660    0.0000 </r>
       <r>   10.6743    0.0000 </r>
       <r>   10.6747    0.0000 </r>
       <r>   12.4969    0.0000 </r>
       <r>   12.5009    0.0000 </r>
      </set>
      <set comment="kpoint 3">
       <r>  -20.4322    1.0000 </r>
       <r>  -20.4322    1.0000 </r>
       <r>   -6.1703    1.0000 </r>
       <r>   -6.1703    1.0000 </r>
       <r>   -5.1550    1.0000 </r>
       <r>   -5.1550    1.0000 </r>
       <r>   -4.7764    1.0000 </r>
       <r>   -4.7764    1.0000 </r>
       <r>    5.8703    0.0000 </r>
       <r>    5.8703    0.0000 </r>
       <r>    8.8949    0.0000 </r>
       <r>    8.8949    0.0000 </r>
       <r>   10.3143    0.0000 </r>
       <r>   10.3144    0.0000 </r>
       <r>   10.3252    0.0000 </r>
       <r>   10.3253    0.0000 </r>
       <r>   13.5057    0.0000 </r>
       <r>   13.6725    0.0000 </r>
      </set>
      <set comment="kpoint 4">
       <r>  -20.3806    1.0000 </r>
       <r>  -20.3806    1.0000 </r>
       <r>   -6.4770    1.0000 </r>
       <r>   -6.4770    1.0000 </r>
       <r>   -5.2249    1.0000 </r>
       <r>   -5.2249    1.0000 </r>
       <r>   -4.8209    1.0000 </r>
       <r>   -4.8209    1.0000 </r>
       <r>    6.2485    0.0000 </r>
       <r>    6.2485    0.0000 </r>
       <r>    9.1153    0.0000 </r>
       <r>    9.1153    0.0000 </r>
       <r>   10.0042    0.0000 </r>
       <r>   10.0042    0.0000 </r>
       <r>   10.0150    0.0000 </r>
       <r>   10.0150    0.0000 </r>
       <r>   13.7647    0.0000 </r>
       <r>   14.1865    0.0000 </r>
      </set>
      <set comment="kpoint 5">
       <r>  -20.4322    1.0000 </r>
       <r>  -20.4322    1.0000 </r>
       <r>   -6.1703    1.0000 </r>
       <r>   -6.1703    1.0000 </r>
       <r>   -5.1550    1.0000 </r>
       <r>   -5.1550    1.0000 </r>
       <r>   -4.7764    1.0000 </r>
       <r>   -4.7764    1.0000 </r>
       <r>    5.8703    0.0000 </r>
       <r>    5.8703    0.0000 </r>
       <r>    8.8949    0.0000 </r>
       <r>    8.8949    0.0000 </r>
       <r>   10.3143    0.0000 </r>
       <r>   10.3143    0.0000 </r>
       <r>   10.3253    0.0000 </r>
       <r>   10.3253    0.0000 </r>
       <r>   13.4752    0.0000 </r>
       <r>   13.6739    0.0000 </r>
      </set>
      <set comment="kpoint 6">
       <r>  -20.5295    1.0000 </r>
       <r>  -20.5294    1.0000 </r>
       <r>   -5.5814    1.0000 </r>
       <r>   -5.5814    1.0000 </r>
       <r>   -4.9049    1.0000 </r>
       <r>   -4.9049    1.0000 </r>
       <r>   -4.6841    1.0000 </r>
       <r>   -4.6841    1.0000 </r>
       <r>    4.5907    0.0000 </r>
       <r>    4.5907    0.0000 </r>
       <r>    9.5172    0.0000 </r>
       <r>    9.5172    0.0000 </r>
       <r>   10.6656    0.0000 </r>
       <r>   10.6657    0.0000 </r>
       <r>   10.6746    0.0000 </r>
       <r>   10.6747    0.0000 </r>
       <r>   12.4948    0.0000 </r>
       <r>   12.5006    0.0000 </r>
      </set>
      <set comment="kpoint 7">
       <r>  -20.5295    1.0000 </r>
       <r>  -20.5294    1.0000 </r>
       <r>   -5.5814    1.0000 </r>
       <r>   -5.5814    1.0000 </r>
       <r>   -4.9049    1.0000 </r>
       <r>   -4.9049    1.0000 </r>
       <r>   -4.6841    1.0000 </r>
       <r>   -4.6841    1.0000 </r>
       <r>    4.5907    0.0000 </r>
       <r>    4.5907    0.0000 </r>
       <r>    9.5172    0.0000 </r>
       <r>    9.5172    0.0000 </r>
       <r>   10.6656    0.0000 </r>
       <r>   10.6662    0.0000 </r>
       <r>   10.6742    0.0000 </r>
       <r>   10.6747    0.0000 </r>
       <r>   12.4993    0.0000 </r>
       <r>   12.5026    0.0000 </r>
      </set>
      <set comment="kpoint 8">
       <r>  -20.5134    1.0000 </r>
       <r>  -20.5134    1.0000 </r>
       <r>   -5.6095    1.0000 </r>
       <r>   -5.6094    1.0000 </r>
       <r>   -4.9514    1.0000 </r>
       <r>   -4.9514    1.0000 </r>
       <r>   -4.7765    1.0000 </r>
       <r>   -4.7765    1.0000 </r>
       <r>    4.8313    0.0000 </r>
       <r>    4.8313    0.0000 </r>
       <r>    9.1571    0.0000 </r>
       <r>    9.1571    0.0000 </r>
       <r>   10.9267    0.0000 </r>
       <r>   10.9272    0.0000 </r>
       <r>   10.9750    0.0000 </r>
       <r>   10.9755    0.0000 </r>
       <r>   10.9989    0.0000 </r>
       <r>   10.9995    0.0000 </r>
      </set>
      <set comment="kpoint 9">
       <r>  -20.4324    1.0000 </r>
       <r>  -20.4323    1.0000 </r>
       <r>   -6.0048    1.0000 </r>
       <r>   -6.0048    1.0000 </r>
       <r>   -5.2168    1.0000 </r>
       <r>   -5.2168    1.0000 </r>
       <r>   -4.8955    1.0000 </r>
       <r>   -4.8955    1.0000 </r>
       <r>    5.9894    0.0000 </r>
       <r>    5.9894    0.0000 </r>
       <r>    8.5197    0.0000 </r>
       <r>    8.5197    0.0000 </r>
       <r>    9.5870    0.0000 </r>
       <r>    9.5870    0.0000 </r>
       <r>   11.1279    0.0000 </r>
       <r>   11.1282    0.0000 </r>
       <r>   12.2938    0.0000 </r>
       <r>   12.3920    0.0000 </r>
      </set>
      <set comment="kpoint 10">
       <r>  -20.3650    1.0000 </r>
       <r>  -20.3649    1.0000 </r>
       <r>   -6.3509    1.0000 </r>
       <r>   -6.3509    1.0000 </r>
       <r>   -5.3739    1.0000 </r>
       <r>   -5.3739    1.0000 </r>
       <r>   -4.9787    1.0000 </r>
       <r>   -4.9787    1.0000 </r>
       <r>    6.8282    0.0000 </r>
       <r>    6.8282    0.0000 </r>
       <r>    8.2773    0.0000 </r>
       <r>    8.2773    0.0000 </r>
       <r>    9.5673    0.0000 </r>
       <r>    9.5673    0.0000 </r>
       <r>   10.6591    0.0000 </r>
       <r>   10.6591    0.0000 </r>
       <r>   13.8634    0.0000 </r>
       <r>   14.2653    0.0000 </r>
      </set>
      <set comment="kpoint 11">
       <r>  -20.3820    1.0000 </r>
       <r>  -20.3820    1.0000 </r>
       <r>   -6.2597    1.0000 </r>
       <r>   -6.2597    1.0000 </r>
       <r>   -5.3810    1.0000 </r>
       <r>   -5.3810    1.0000 </r>
       <r>   -4.9271    1.0000 </r>
       <r>   -4.9270    1.0000 </r>
       <r>    6.7788    0.0000 </r>
       <r>    6.7788    0.0000 </r>
       <r>    8.5091    0.0000 </r>
       <r>    8.5092    0.0000 </r>
       <r>    9.3241    0.0000 </r>
       <r>    9.3241    0.0000 </r>
       <r>   10.6085    0.0000 </r>
       <r>   10.6085    0.0000 </r>
       <r>   13.1035    0.0000 </r>
       <r>   13.3982    0.0000 </r>
      </set>
      <set comment="kpoint 12">
       <r>  -20.4646    1.0000 </r>
       <r>  -20.4645    1.0000 </r>
       <r>   -5.8681    1.0000 </r>
       <r>   -5.8681    1.0000 </r>
       <r>   -5.1565    1.0000 </r>
       <r>   -5.1565    1.0000 </r>
       <r>   -4.7928    1.0000 </r>
       <r>   -4.7928    1.0000 </r>
       <r>    5.5980    0.0000 </r>
       <r>    5.5980    0.0000 </r>
       <r>    8.9420    0.0000 </r>
       <r>    8.9420    0.0000 </r>
       <r>    9.9087    0.0000 </r>
       <r>    9.9087    0.0000 </r>
       <r>   11.2416    0.0000 </r>
       <r>   11.2423    0.0000 </r>
       <r>   11.3473    0.0000 </r>
       <r>   11.3480    0.0000 </r>
      </set>
      <set comment="kpoint 13">
       <r>  -20.4322    1.0000 </r>
       <r>  -20.4322    1.0000 </r>
       <r>   -6.1703    1.0000 </r>
       <r>   -6.1703    1.0000 </r>
       <r>   -5.1550    1.0000 </r>
       <r>   -5.1550    1.0000 </r>
       <r>   -4.7764    1.0000 </r>
       <r>   -4.7764    1.0000 </r>
       <r>    5.8703    0.0000 </r>
       <r>    5.8703    0.0000 </r>
       <r>    8.8949    0.0000 </r>
       <r>    8.8949    0.0000 </r>
       <r>   10.3143    0.0000 </r>
       <r>   10.3143    0.0000 </r>
       <r>   10.3253    0.0000 </r>
       <r>   10.3253    0.0000 </r>
       <r>   13.4598    0.0000 </r>
       <r>   13.6476    0.0000 </r>
      </set>
      <set comment="kpoint 14">
       <r>  -20.4324    1.0000 </r>
       <r>  -20.4323    1.0000 </r>
       <r>   -6.0048    1.0000 </r>
       <r>   -6.0048    1.0000 </r>
       <r>   -5.2168    1.0000 </r>
       <r>   -5.2168    1.0000 </r>
       <r>   -4.8955    1.0000 </r>
       <r>   -4.8955    1.0000 </r>
       <r>    5.9894    0.0000 </r>
       <r>    5.9894    0.0000 </r>
       <r>    8.5197    0.0000 </r>
       <r>    8.5197    0.0000 </r>
       <r>    9.5870    0.0000 </r>
       <r>    9.5871    0.0000 </r>
       <r>   11.1279    0.0000 </r>
       <r>   11.1279    0.0000 </r>
       <r>   12.2939    0.0000 </r>
       <r>   12.2940    0.0000 </r>
      </set>
      <set comment="kpoint 15">
       <r>  -20.3848    1.0000 </r>
       <r>  -20.3848    1.0000 </r>
       <r>   -6.1333    1.0000 </r>
       <r>   -6.1333    1.0000 </r>
       <r>   -5.3594    1.0000 </r>
       <r>   -5.3594    1.0000 </r>
       <r>   -5.0452    1.0000 </r>
       <r>   -5.0452    1.0000 </r>
       <r>    6.1623    0.0000 </r>
       <r>    6.1624    0.0000 </r>
       <r>    7.8057    0.0000 </r>
       <r>    7.8057    0.0000 </r>
       <r>    9.6384    0.0000 </r>
       <r>    9.6384    0.0000 </r>
       <r>   12.5160    0.0000 </r>
       <r>   12.5419    0.0000 </r>
       <r>   12.5895    0.0000 </r>
       <r>   14.1687    0.0000 </r>
      </set>
      <set comment="kpoint 16">
       <r>  -20.3337    1.0000 </r>
       <r>  -20.3336    1.0000 </r>
       <r>   -6.2813    1.0000 </r>
       <r>   -6.2812    1.0000 </r>
       <r>   -5.5290    1.0000 </r>
       <r>   -5.5290    1.0000 </r>
       <r>   -5.1664    1.0000 </r>
       <r>   -5.1664    1.0000 </r>
       <r>    6.5044    0.0000 </r>
       <r>    6.5044    0.0000 </r>
       <r>    7.7777    0.0000 </r>
       <r>    7.7777    0.0000 </r>
       <r>    9.7538    0.0000 </r>
       <r>    9.7538    0.0000 </r>
       <r>   12.4231    0.0000 </r>
       <r>   12.4235    0.0000 </r>
       <r>   13.5038    0.0000 </r>
       <r>   13.7223    0.0000 </r>
      </set>
      <set comment="kpoint 17">
       <r>  -20.3339    1.0000 </r>
       <r>  -20.3339    1.0000 </r>
       <r>   -6.2051    1.0000 </r>
       <r>   -6.2051    1.0000 </r>
       <r>   -5.6985    1.0000 </r>
       <r>   -5.6985    1.0000 </r>
       <r>   -5.1180    1.0000 </r>
       <r>   -5.1179    1.0000 </r>
       <r>    7.3216    0.0000 </r>
       <r>    7.3216    0.0000 </r>
       <r>    7.9969    0.0000 </r>
       <r>    7.9969    0.0000 </r>
       <r>    9.3244    0.0000 </r>
       <r>    9.3244    0.0000 </r>
       <r>   11.5540    0.0000 </r>
       <r>   11.5841    0.0000 </r>
       <r>   13.1777    0.0000 </r>
       <r>   13.4347    0.0000 </r>
      </set>
      <set comment="kpoint 18">
       <r>  -20.3820    1.0000 </r>
       <r>  -20.3820    1.0000 </r>
       <r>   -6.2597    1.0000 </r>
       <r>   -6.2597    1.0000 </r>
       <r>   -5.3810    1.0000 </r>
       <r>   -5.3810    1.0000 </r>
       <r>   -4.9271    1.0000 </r>
       <r>   -4.9270    1.0000 </r>
       <r>    6.7788    0.0000 </r>
       <r>    6.7788    0.0000 </r>
       <r>    8.5091    0.0000 </r>
       <r>    8.5093    0.0000 </r>
       <r>    9.3241    0.0000 </r>
       <r>    9.3241    0.0000 </r>
       <r>   10.6085    0.0000 </r>
       <r>   10.6085    0.0000 </r>
       <r>   13.1216    0.0000 </r>
       <r>   14.2952    0.0000 </r>
      </set>
      <set comment="kpoint 19">
       <r>  -20.3806    1.0000 </r>
       <r>  -20.3806    1.0000 </r>
       <r>   -6.4770    1.0000 </r>
       <r>   -6.4770    1.0000 </r>
       <r>   -5.2249    1.0000 </r>
       <r>   -5.2249    1.0000 </r>
       <r>   -4.8209    1.0000 </r>
       <r>   -4.8209    1.0000 </r>
       <r>    6.2485    0.0000 </r>
       <r>    6.2485    0.0000 </r>
       <r>    9.1153    0.0000 </r>
       <r>    9.1153    0.0000 </r>
       <r>   10.0042    0.0000 </r>
       <r>   10.0042    0.0000 </r>
       <r>   10.0150    0.0000 </r>
       <r>   10.0150    0.0000 </r>
       <r>   13.8016    0.0000 </r>
       <r>   14.2567    0.0000 </r>
      </set>
      <set comment="kpoint 20">
       <r>  -20.3650    1.0000 </r>
       <r>  -20.3649    1.0000 </r>
       <r>   -6.3509    1.0000 </r>
       <r>   -6.3509    1.0000 </r>
       <r>   -5.3739    1.0000 </r>
       <r>   -5.3739    1.0000 </r>
       <r>   -4.9787    1.0000 </r>
       <r>   -4.9787    1.0000 </r>
       <r>    6.8282    0.0000 </r>
       <r>    6.8282    0.0000 </r>
       <r>    8.2773    0.0000 </r>
       <r>    8.2773    0.0000 </r>
       <r>    9.5673    0.0000 </r>
       <r>    9.5673    0.0000 </r>
       <r>   10.6591    0.0000 </r>
       <r>   10.6591    0.0000 </r>
       <r>   13.9984    0.0000 </r>
       <r>   14.5596    0.0000 </r>
      </set>
      <set comment="kpoint 21">
       <r>  -20.3337    1.0000 </r>
       <r>  -20.3336    1.0000 </r>
       <r>   -6.2813    1.0000 </r>
       <r>   -6.2812    1.0000 </r>
       <r>   -5.5290    1.0000 </r>
       <r>   -5.5290    1.0000 </r>
       <r>   -5.1664    1.0000 </r>
       <r>   -5.1664    1.0000 </r>
       <r>    6.5044    0.0000 </r>
       <r>    6.5044    0.0000 </r>
       <r>    7.7777    0.0000 </r>
       <r>    7.7777    0.0000 </r>
       <r>    9.7538    0.0000 </r>
       <r>    9.7538    0.0000 </r>
       <r>   12.4206    0.0000 </r>
       <r>   12.4382    0.0000 </r>
       <r>   13.5065    0.0000 </r>
       <r>   13.7637    0.0000 </r>
      </set>
      <set comment="kpoint 22">
       <r>  -20.3171    1.0000 </r>
       <r>  -20.3170    1.0000 </r>
       <r>   -6.3850    1.0000 </r>
       <r>   -6.3850    1.0000 </r>
       <r>   -5.5109    1.0000 </r>
       <r>   -5.5109    1.0000 </r>
       <r>   -5.1727    1.0000 </r>
       <r>   -5.1727    1.0000 </r>
       <r>    6.0061    0.0000 </r>
       <r>    6.0061    0.0000 </r>
       <r>    7.3258    0.0000 </r>
       <r>    7.3258    0.0000 </r>
       <r>   10.6711    0.0000 </r>
       <r>   10.6711    0.0000 </r>
       <r>   14.3786    0.0000 </r>
       <r>   14.4758    0.0000 </r>
       <r>   14.5921    0.0000 </r>
       <r>   14.9118    0.0000 </r>
      </set>
      <set comment="kpoint 23">
       <r>  -20.3337    1.0000 </r>
       <r>  -20.3336    1.0000 </r>
       <r>   -6.2813    1.0000 </r>
       <r>   -6.2812    1.0000 </r>
       <r>   -5.5290    1.0000 </r>
       <r>   -5.5290    1.0000 </r>
       <r>   -5.1664    1.0000 </r>
       <r>   -5.1664    1.0000 </r>
       <r>    6.5044    0.0000 </r>
       <r>    6.5044    0.0000 </r>
       <r>    7.7777    0.0000 </r>
       <r>    7.7777    0.0000 </r>
       <r>    9.7538    0.0000 </r>
       <r>    9.7538    0.0000 </r>
       <r>   12.4206    0.0000 </r>
       <r>   12.4207    0.0000 </r>
       <r>   13.5041    0.0000 </r>
       <r>   13.6530    0.0000 </r>
      </set>
      <set comment="kpoint 24">
       <r>  -20.3650    1.0000 </r>
       <r>  -20.3649    1.0000 </r>
       <r>   -6.3509    1.0000 </r>
       <r>   -6.3509    1.0000 </r>
       <r>   -5.3739    1.0000 </r>
       <r>   -5.3739    1.0000 </r>
       <r>   -4.9787    1.0000 </r>
       <r>   -4.9787    1.0000 </r>
       <r>    6.8282    0.0000 </r>
       <r>    6.8282    0.0000 </r>
       <r>    8.2773    0.0000 </r>
       <r>    8.2774    0.0000 </r>
       <r>    9.5673    0.0000 </r>
       <r>    9.5673    0.0000 </r>
       <r>   10.6591    0.0000 </r>
       <r>   10.6591    0.0000 </r>
       <r>   13.8196    0.0000 </r>
       <r>   15.7113    0.0000 </r>
      </set>
      <set comment="kpoint 25">
       <r>  -20.4322    1.0000 </r>
       <r>  -20.4322    1.0000 </r>
       <r>   -6.1703    1.0000 </r>
       <r>   -6.1703    1.0000 </r>
       <r>   -5.1550    1.0000 </r>
       <r>   -5.1550    1.0000 </r>
       <r>   -4.7764    1.0000 </r>
       <r>   -4.7764    1.0000 </r>
       <r>    5.8703    0.0000 </r>
       <r>    5.8703    0.0000 </r>
       <r>    8.8949    0.0000 </r>
       <r>    8.8949    0.0000 </r>
       <r>   10.3143    0.0000 </r>
       <r>   10.3143    0.0000 </r>
       <r>   10.3253    0.0000 </r>
       <r>   10.3253    0.0000 </r>
       <r>   13.5091    0.0000 </r>
       <r>   13.6911    0.0000 </r>
      </set>
      <set comment="kpoint 26">
       <r>  -20.3820    1.0000 </r>
       <r>  -20.3820    1.0000 </r>
       <r>   -6.2597    1.0000 </r>
       <r>   -6.2597    1.0000 </r>
       <r>   -5.3810    1.0000 </r>
       <r>   -5.3810    1.0000 </r>
       <r>   -4.9271    1.0000 </r>
       <r>   -4.9270    1.0000 </r>
       <r>    6.7788    0.0000 </r>
       <r>    6.7788    0.0000 </r>
       <r>    8.5092    0.0000 </r>
       <r>    8.5092    0.0000 </r>
       <r>    9.3241    0.0000 </r>
       <r>    9.3241    0.0000 </r>
       <r>   10.6085    0.0000 </r>
       <r>   10.6085    0.0000 </r>
       <r>   13.1035    0.0000 </r>
       <r>   13.2374    0.0000 </r>
      </set>
      <set comment="kpoint 27">
       <r>  -20.3339    1.0000 </r>
       <r>  -20.3339    1.0000 </r>
       <r>   -6.2051    1.0000 </r>
       <r>   -6.2051    1.0000 </r>
       <r>   -5.6985    1.0000 </r>
       <r>   -5.6985    1.0000 </r>
       <r>   -5.1180    1.0000 </r>
       <r>   -5.1179    1.0000 </r>
       <r>    7.3216    0.0000 </r>
       <r>    7.3216    0.0000 </r>
       <r>    7.9969    0.0000 </r>
       <r>    7.9969    0.0000 </r>
       <r>    9.3244    0.0000 </r>
       <r>    9.3244    0.0000 </r>
       <r>   11.5478    0.0000 </r>
       <r>   11.5657    0.0000 </r>
       <r>   13.1782    0.0000 </r>
       <r>   13.6616    0.0000 </r>
      </set>
      <set comment="kpoint 28">
       <r>  -20.3337    1.0000 </r>
       <r>  -20.3336    1.0000 </r>
       <r>   -6.2813    1.0000 </r>
       <r>   -6.2812    1.0000 </r>
       <r>   -5.5290    1.0000 </r>
       <r>   -5.5290    1.0000 </r>
       <r>   -5.1664    1.0000 </r>
       <r>   -5.1664    1.0000 </r>
       <r>    6.5044    0.0000 </r>
       <r>    6.5044    0.0000 </r>
       <r>    7.7777    0.0000 </r>
       <r>    7.7777    0.0000 </r>
       <r>    9.7538    0.0000 </r>
       <r>    9.7539    0.0000 </r>
       <r>   12.4206    0.0000 </r>
       <r>   12.4221    0.0000 </r>
       <r>   13.5072    0.0000 </r>
       <r>   13.6336    0.0000 </r>
      </set>
      <set comment="kpoint 29">
       <r>  -20.3848    1.0000 </r>
       <r>  -20.3848    1.0000 </r>
       <r>   -6.1333    1.0000 </r>
       <r>   -6.1333    1.0000 </r>
       <r>   -5.3594    1.0000 </r>
       <r>   -5.3594    1.0000 </r>
       <r>   -5.0452    1.0000 </r>
       <r>   -5.0452    1.0000 </r>
       <r>    6.1623    0.0000 </r>
       <r>    6.1624    0.0000 </r>
       <r>    7.8057    0.0000 </r>
       <r>    7.8057    0.0000 </r>
       <r>    9.6384    0.0000 </r>
       <r>    9.6384    0.0000 </r>
       <r>   12.5149    0.0000 </r>
       <r>   12.5181    0.0000 </r>
       <r>   12.5894    0.0000 </r>
       <r>   12.5894    0.0000 </r>
      </set>
      <set comment="kpoint 30">
       <r>  -20.4324    1.0000 </r>
       <r>  -20.4323    1.0000 </r>
       <r>   -6.0048    1.0000 </r>
       <r>   -6.0048    1.0000 </r>
       <r>   -5.2168    1.0000 </r>
       <r>   -5.2168    1.0000 </r>
       <r>   -4.8955    1.0000 </r>
       <r>   -4.8955    1.0000 </r>
       <r>    5.9894    0.0000 </r>
       <r>    5.9894    0.0000 </r>
       <r>    8.5197    0.0000 </r>
       <r>    8.5197    0.0000 </r>
       <r>    9.5870    0.0000 </r>
       <r>    9.5871    0.0000 </r>
       <r>   11.1279    0.0000 </r>
       <r>   11.1281    0.0000 </r>
       <r>   12.2938    0.0000 </r>
       <r>   12.3049    0.0000 </r>
      </set>
      <set comment="kpoint 31">
       <r>  -20.5295    1.0000 </r>
       <r>  -20.5294    1.0000 </r>
       <r>   -5.5814    1.0000 </r>
       <r>   -5.5814    1.0000 </r>
       <r>   -4.9049    1.0000 </r>
       <r>   -4.9049    1.0000 </r>
       <r>   -4.6841    1.0000 </r>
       <r>   -4.6841    1.0000 </r>
       <r>    4.5907    0.0000 </r>
       <r>    4.5907    0.0000 </r>
       <r>    9.5172    0.0000 </r>
       <r>    9.5172    0.0000 </r>
       <r>   10.6655    0.0000 </r>
       <r>   10.6668    0.0000 </r>
       <r>   10.6736    0.0000 </r>
       <r>   10.6747    0.0000 </r>
       <r>   12.4950    0.0000 </r>
       <r>   12.5031    0.0000 </r>
      </set>
      <set comment="kpoint 32">
       <r>  -20.4646    1.0000 </r>
       <r>  -20.4645    1.0000 </r>
       <r>   -5.8681    1.0000 </r>
       <r>   -5.8681    1.0000 </r>
       <r>   -5.1565    1.0000 </r>
       <r>   -5.1565    1.0000 </r>
       <r>   -4.7928    1.0000 </r>
       <r>   -4.7928    1.0000 </r>
       <r>    5.5980    0.0000 </r>
       <r>    5.5980    0.0000 </r>
       <r>    8.9420    0.0000 </r>
       <r>    8.9420    0.0000 </r>
       <r>    9.9087    0.0000 </r>
       <r>    9.9089    0.0000 </r>
       <r>   11.2416    0.0000 </r>
       <r>   11.3271    0.0000 </r>
       <r>   11.3480    0.0000 </r>
       <r>   13.2205    0.0000 </r>
      </set>
      <set comment="kpoint 33">
       <r>  -20.3820    1.0000 </r>
       <r>  -20.3820    1.0000 </r>
       <r>   -6.2597    1.0000 </r>
       <r>   -6.2597    1.0000 </r>
       <r>   -5.3810    1.0000 </r>
       <r>   -5.3810    1.0000 </r>
       <r>   -4.9271    1.0000 </r>
       <r>   -4.9270    1.0000 </r>
       <r>    6.7788    0.0000 </r>
       <r>    6.7788    0.0000 </r>
       <r>    8.5091    0.0000 </r>
       <r>    8.5092    0.0000 </r>
       <r>    9.3241    0.0000 </r>
       <r>    9.3241    0.0000 </r>
       <r>   10.6085    0.0000 </r>
       <r>   10.6085    0.0000 </r>
       <r>   13.1254    0.0000 </r>
       <r>   13.6994    0.0000 </r>
      </set>
      <set comment="kpoint 34">
       <r>  -20.3650    1.0000 </r>
       <r>  -20.3649    1.0000 </r>
       <r>   -6.3509    1.0000 </r>
       <r>   -6.3509    1.0000 </r>
       <r>   -5.3739    1.0000 </r>
       <r>   -5.3739    1.0000 </r>
       <r>   -4.9787    1.0000 </r>
       <r>   -4.9787    1.0000 </r>
       <r>    6.8282    0.0000 </r>
       <r>    6.8282    0.0000 </r>
       <r>    8.2773    0.0000 </r>
       <r>    8.2774    0.0000 </r>
       <r>    9.5673    0.0000 </r>
       <r>    9.5673    0.0000 </r>
       <r>   10.6591    0.0000 </r>
       <r>   10.6591    0.0000 </r>
       <r>   13.8625    0.0000 </r>
       <r>   14.1270    0.0000 </r>
      </set>
      <set comment="kpoint 35">
       <r>  -20.4324    1.0000 </r>
       <r>  -20.4323    1.0000 </r>
       <r>   -6.0048    1.0000 </r>
       <r>   -6.0048    1.0000 </r>
       <r>   -5.2168    1.0000 </r>
       <r>   -5.2168    1.0000 </r>
       <r>   -4.8955    1.0000 </r>
       <r>   -4.8955    1.0000 </r>
       <r>    5.9894    0.0000 </r>
       <r>    5.9894    0.0000 </r>
       <r>    8.5197    0.0000 </r>
       <r>    8.5197    0.0000 </r>
       <r>    9.5870    0.0000 </r>
       <r>    9.5871    0.0000 </r>
       <r>   11.1279    0.0000 </r>
       <r>   11.1279    0.0000 </r>
       <r>   12.2938    0.0000 </r>
       <r>   12.2976    0.0000 </r>
      </set>
      <set comment="kpoint 36">
       <r>  -20.5134    1.0000 </r>
       <r>  -20.5134    1.0000 </r>
       <r>   -5.6095    1.0000 </r>
       <r>   -5.6094    1.0000 </r>
       <r>   -4.9514    1.0000 </r>
       <r>   -4.9514    1.0000 </r>
       <r>   -4.7765    1.0000 </r>
       <r>   -4.7765    1.0000 </r>
       <r>    4.8313    0.0000 </r>
       <r>    4.8313    0.0000 </r>
       <r>    9.1571    0.0000 </r>
       <r>    9.1572    0.0000 </r>
       <r>   10.9268    0.0000 </r>
       <r>   10.9269    0.0000 </r>
       <r>   10.9749    0.0000 </r>
       <r>   10.9869    0.0000 </r>
       <r>   10.9995    0.0000 </r>
       <r>   11.4431    0.0000 </r>
      </set>
      <set comment="kpoint 37">
       <r>  -20.5295    1.0000 </r>
       <r>  -20.5294    1.0000 </r>
       <r>   -5.5814    1.0000 </r>
       <r>   -5.5814    1.0000 </r>
       <r>   -4.9049    1.0000 </r>
       <r>   -4.9049    1.0000 </r>
       <r>   -4.6841    1.0000 </r>
       <r>   -4.6841    1.0000 </r>
       <r>    4.5907    0.0000 </r>
       <r>    4.5907    0.0000 </r>
       <r>    9.5172    0.0000 </r>
       <r>    9.5172    0.0000 </r>
       <r>   10.6655    0.0000 </r>
       <r>   10.6656    0.0000 </r>
       <r>   10.6747    0.0000 </r>
       <r>   10.6747    0.0000 </r>
       <r>   12.4966    0.0000 </r>
       <r>   12.5009    0.0000 </r>
      </set>
      <set comment="kpoint 38">
       <r>  -20.5134    1.0000 </r>
       <r>  -20.5134    1.0000 </r>
       <r>   -5.6095    1.0000 </r>
       <r>   -5.6094    1.0000 </r>
       <r>   -4.9514    1.0000 </r>
       <r>   -4.9514    1.0000 </r>
       <r>   -4.7765    1.0000 </r>
       <r>   -4.7765    1.0000 </r>
       <r>    4.8313    0.0000 </r>
       <r>    4.8313    0.0000 </r>
       <r>    9.1571    0.0000 </r>
       <r>    9.1571    0.0000 </r>
       <r>   10.9266    0.0000 </r>
       <r>   10.9267    0.0000 </r>
       <r>   10.9749    0.0000 </r>
       <r>   10.9749    0.0000 </r>
       <r>   10.9994    0.0000 </r>
       <r>   10.9994    0.0000 </r>
      </set>
      <set comment="kpoint 39">
       <r>  -20.4324    1.0000 </r>
       <r>  -20.4323    1.0000 </r>
       <r>   -6.0048    1.0000 </r>
       <r>   -6.0048    1.0000 </r>
       <r>   -5.2168    1.0000 </r>
       <r>   -5.2168    1.0000 </r>
       <r>   -4.8955    1.0000 </r>
       <r>   -4.8955    1.0000 </r>
       <r>    5.9894    0.0000 </r>
       <r>    5.9894    0.0000 </r>
       <r>    8.5197    0.0000 </r>
       <r>    8.5197    0.0000 </r>
       <r>    9.5870    0.0000 </r>
       <r>    9.5870    0.0000 </r>
       <r>   11.1279    0.0000 </r>
       <r>   11.1294    0.0000 </r>
       <r>   12.2941    0.0000 </r>
       <r>   13.5380    0.0000 </r>
      </set>
      <set comment="kpoint 40">
       <r>  -20.3650    1.0000 </r>
       <r>  -20.3649    1.0000 </r>
       <r>   -6.3509    1.0000 </r>
       <r>   -6.3509    1.0000 </r>
       <r>   -5.3739    1.0000 </r>
       <r>   -5.3739    1.0000 </r>
       <r>   -4.9787    1.0000 </r>
       <r>   -4.9787    1.0000 </r>
       <r>    6.8282    0.0000 </r>
       <r>    6.8282    0.0000 </r>
       <r>    8.2773    0.0000 </r>
       <r>    8.2773    0.0000 </r>
       <r>    9.5673    0.0000 </r>
       <r>    9.5673    0.0000 </r>
       <r>   10.6591    0.0000 </r>
       <r>   10.6591    0.0000 </r>
       <r>   13.8446    0.0000 </r>
       <r>   14.9739    0.0000 </r>
      </set>
      <set comment="kpoint 41">
       <r>  -20.3820    1.0000 </r>
       <r>  -20.3820    1.0000 </r>
       <r>   -6.2597    1.0000 </r>
       <r>   -6.2597    1.0000 </r>
       <r>   -5.3810    1.0000 </r>
       <r>   -5.3810    1.0000 </r>
       <r>   -4.9271    1.0000 </r>
       <r>   -4.9270    1.0000 </r>
       <r>    6.7788    0.0000 </r>
       <r>    6.7788    0.0000 </r>
       <r>    8.5091    0.0000 </r>
       <r>    8.5092    0.0000 </r>
       <r>    9.3241    0.0000 </r>
       <r>    9.3241    0.0000 </r>
       <r>   10.6085    0.0000 </r>
       <r>   10.6085    0.0000 </r>
       <r>   13.1365    0.0000 </r>
       <r>   13.2625    0.0000 </r>
      </set>
      <set comment="kpoint 42">
       <r>  -20.4646    1.0000 </r>
       <r>  -20.4645    1.0000 </r>
       <r>   -5.8681    1.0000 </r>
       <r>   -5.8681    1.0000 </r>
       <r>   -5.1565    1.0000 </r>
       <r>   -5.1565    1.0000 </r>
       <r>   -4.7928    1.0000 </r>
       <r>   -4.7928    1.0000 </r>
       <r>    5.5980    0.0000 </r>
       <r>    5.5980    0.0000 </r>
       <r>    8.9420    0.0000 </r>
       <r>    8.9420    0.0000 </r>
       <r>    9.9087    0.0000 </r>
       <r>    9.9087    0.0000 </r>
       <r>   11.2416    0.0000 </r>
       <r>   11.2422    0.0000 </r>
       <r>   11.3480    0.0000 </r>
       <r>   11.3480    0.0000 </r>
      </set>
      <set comment="kpoint 43">
       <r>  -20.5134    1.0000 </r>
       <r>  -20.5134    1.0000 </r>
       <r>   -5.6095    1.0000 </r>
       <r>   -5.6095    1.0000 </r>
       <r>   -4.9514    1.0000 </r>
       <r>   -4.9514    1.0000 </r>
       <r>   -4.7765    1.0000 </r>
       <r>   -4.7765    1.0000 </r>
       <r>    4.8313    0.0000 </r>
       <r>    4.8313    0.0000 </r>
       <r>    9.1571    0.0000 </r>
       <r>    9.1572    0.0000 </r>
       <r>   10.9268    0.0000 </r>
       <r>   10.9353    0.0000 </r>
       <r>   10.9749    0.0000 </r>
       <r>   10.9789    0.0000 </r>
       <r>   10.9905    0.0000 </r>
       <r>   10.9994    0.0000 </r>
      </set>
      <set comment="kpoint 44">
       <r>  -20.5295    1.0000 </r>
       <r>  -20.5294    1.0000 </r>
       <r>   -5.5814    1.0000 </r>
       <r>   -5.5814    1.0000 </r>
       <r>   -4.9049    1.0000 </r>
       <r>   -4.9049    1.0000 </r>
       <r>   -4.6841    1.0000 </r>
       <r>   -4.6840    1.0000 </r>
       <r>    4.5907    0.0000 </r>
       <r>    4.5907    0.0000 </r>
       <r>    9.5172    0.0000 </r>
       <r>    9.5172    0.0000 </r>
       <r>   10.6657    0.0000 </r>
       <r>   10.6657    0.0000 </r>
       <r>   10.6746    0.0000 </r>
       <r>   10.6747    0.0000 </r>
       <r>   12.4952    0.0000 </r>
       <r>   12.5010    0.0000 </r>
      </set>
      <set comment="kpoint 45">
       <r>  -20.4646    1.0000 </r>
       <r>  -20.4645    1.0000 </r>
       <r>   -5.8681    1.0000 </r>
       <r>   -5.8681    1.0000 </r>
       <r>   -5.1565    1.0000 </r>
       <r>   -5.1565    1.0000 </r>
       <r>   -4.7928    1.0000 </r>
       <r>   -4.7928    1.0000 </r>
       <r>    5.5980    0.0000 </r>
       <r>    5.5980    0.0000 </r>
       <r>    8.9420    0.0000 </r>
       <r>    8.9420    0.0000 </r>
       <r>    9.9087    0.0000 </r>
       <r>    9.9088    0.0000 </r>
       <r>   11.2416    0.0000 </r>
       <r>   11.2417    0.0000 </r>
       <r>   11.3479    0.0000 </r>
       <r>   11.3480    0.0000 </r>
      </set>
      <set comment="kpoint 46">
       <r>  -20.3820    1.0000 </r>
       <r>  -20.3820    1.0000 </r>
       <r>   -6.2597    1.0000 </r>
       <r>   -6.2597    1.0000 </r>
       <r>   -5.3810    1.0000 </r>
       <r>   -5.3810    1.0000 </r>
       <r>   -4.9271    1.0000 </r>
       <r>   -4.9270    1.0000 </r>
       <r>    6.7788    0.0000 </r>
       <r>    6.7788    0.0000 </r>
       <r>    8.5092    0.0000 </r>
       <r>    8.5092    0.0000 </r>
       <r>    9.3241    0.0000 </r>
       <r>    9.3241    0.0000 </r>
       <r>   10.6085    0.0000 </r>
       <r>   10.6085    0.0000 </r>
       <r>   13.1207    0.0000 </r>
       <r>   14.6790    0.0000 </r>
      </set>
      <set comment="kpoint 47">
       <r>  -20.3650    1.0000 </r>
       <r>  -20.3649    1.0000 </r>
       <r>   -6.3509    1.0000 </r>
       <r>   -6.3509    1.0000 </r>
       <r>   -5.3739    1.0000 </r>
       <r>   -5.3739    1.0000 </r>
       <r>   -4.9787    1.0000 </r>
       <r>   -4.9787    1.0000 </r>
       <r>    6.8282    0.0000 </r>
       <r>    6.8282    0.0000 </r>
       <r>    8.2773    0.0000 </r>
       <r>    8.2774    0.0000 </r>
       <r>    9.5673    0.0000 </r>
       <r>    9.5673    0.0000 </r>
       <r>   10.6591    0.0000 </r>
       <r>   10.6591    0.0000 </r>
       <r>   13.8372    0.0000 </r>
       <r>   14.0916    0.0000 </r>
      </set>
      <set comment="kpoint 48">
       <r>  -20.4324    1.0000 </r>
       <r>  -20.4323    1.0000 </r>
       <r>   -6.0048    1.0000 </r>
       <r>   -6.0048    1.0000 </r>
       <r>   -5.2168    1.0000 </r>
       <r>   -5.2168    1.0000 </r>
       <r>   -4.8955    1.0000 </r>
       <r>   -4.8955    1.0000 </r>
       <r>    5.9894    0.0000 </r>
       <r>    5.9894    0.0000 </r>
       <r>    8.5197    0.0000 </r>
       <r>    8.5197    0.0000 </r>
       <r>    9.5870    0.0000 </r>
       <r>    9.5872    0.0000 </r>
       <r>   11.1279    0.0000 </r>
       <r>   11.1279    0.0000 </r>
       <r>   12.2940    0.0000 </r>
       <r>   12.2964    0.0000 </r>
      </set>
      <set comment="kpoint 49">
       <r>  -20.4324    1.0000 </r>
       <r>  -20.4323    1.0000 </r>
       <r>   -6.0048    1.0000 </r>
       <r>   -6.0048    1.0000 </r>
       <r>   -5.2168    1.0000 </r>
       <r>   -5.2167    1.0000 </r>
       <r>   -4.8955    1.0000 </r>
       <r>   -4.8955    1.0000 </r>
       <r>    5.9894    0.0000 </r>
       <r>    5.9894    0.0000 </r>
       <r>    8.5197    0.0000 </r>
       <r>    8.5197    0.0000 </r>
       <r>    9.5870    0.0000 </r>
       <r>    9.5870    0.0000 </r>
       <r>   11.1279    0.0000 </r>
       <r>   11.1300    0.0000 </r>
       <r>   12.2939    0.0000 </r>
       <r>   12.8894    0.0000 </r>
      </set>
      <set comment="kpoint 50">
       <r>  -20.4646    1.0000 </r>
       <r>  -20.4645    1.0000 </r>
       <r>   -5.8681    1.0000 </r>
       <r>   -5.8681    1.0000 </r>
       <r>   -5.1565    1.0000 </r>
       <r>   -5.1565    1.0000 </r>
       <r>   -4.7928    1.0000 </r>
       <r>   -4.7928    1.0000 </r>
       <r>    5.5980    0.0000 </r>
       <r>    5.5980    0.0000 </r>
       <r>    8.9420    0.0000 </r>
       <r>    8.9420    0.0000 </r>
       <r>    9.9087    0.0000 </r>
       <r>    9.9090    0.0000 </r>
       <r>   11.2416    0.0000 </r>
       <r>   11.2416    0.0000 </r>
       <r>   11.3480    0.0000 </r>
       <r>   11.3480    0.0000 </r>
      </set>
      <set comment="kpoint 51">
       <r>  -20.4324    1.0000 </r>
       <r>  -20.4323    1.0000 </r>
       <r>   -6.0048    1.0000 </r>
       <r>   -6.0048    1.0000 </r>
       <r>   -5.2168    1.0000 </r>
       <r>   -5.2167    1.0000 </r>
       <r>   -4.8955    1.0000 </r>
       <r>   -4.8955    1.0000 </r>
       <r>    5.9894    0.0000 </r>
       <r>    5.9894    0.0000 </r>
       <r>    8.5197    0.0000 </r>
       <r>    8.5197    0.0000 </r>
       <r>    9.5870    0.0000 </r>
       <r>    9.5870    0.0000 </r>
       <r>   11.1279    0.0000 </r>
       <r>   11.1295    0.0000 </r>
       <r>   12.2939    0.0000 </r>
       <r>   12.8479    0.0000 </r>
      </set>
      <set comment="kpoint 52">
       <r>  -20.3661    1.0000 </r>
       <r>  -20.3661    1.0000 </r>
       <r>   -6.1810    1.0000 </r>
       <r>   -6.1810    1.0000 </r>
       <r>   -5.4714    1.0000 </r>
       <r>   -5.4714    1.0000 </r>
       <r>   -5.0659    1.0000 </r>
       <r>   -5.0659    1.0000 </r>
       <r>    6.9480    0.0000 </r>
       <r>    6.9480    0.0000 </r>
       <r>    8.3508    0.0000 </r>
       <r>    8.3508    0.0000 </r>
[...]
       <r>     6.0814     0.0000     0.0000 </r>
       <r>     6.2151     0.0000     0.0000 </r>
       <r>     6.3489     0.0000     0.0000 </r>
       <r>     6.4826     0.0000     0.0000 </r>
       <r>     6.6163     0.0000     0.0000 </r>
       <r>     6.7500     0.0000     0.0000 </r>
       <r>     6.8837     0.0000     0.0000 </r>
       <r>     7.0175     0.0000     0.0000 </r>
       <r>     7.1512     0.0000     0.0000 </r>
       <r>     7.2849     0.0000     0.0000 </r>
       <r>     7.4186     0.0000     0.0000 </r>
       <r>     7.5524     0.0000     0.0000 </r>
       <r>     7.6861     0.0000     0.0000 </r>
       <r>     7.8198     0.0000     0.0000 </r>
       <r>     7.9535     0.0000     0.0000 </r>
       <r>     8.0873     0.0000     0.0000 </r>
       <r>     8.2210     0.0000     0.0000 </r>
       <r>     8.3547     0.0000     0.0000 </r>
       <r>     8.4884     0.0000     0.0000 </r>
       <r>     8.6221     0.0000     0.0000 </r>
       <r>     8.7559     0.0000     0.0000 </r>
       <r>     8.8896     0.0000     0.0000 </r>
       <r>     9.0233     0.0000     0.0000 </r>
       <r>     9.1570     0.0000     0.0000 </r>
       <r>     9.2908     0.0000     0.0000 </r>
       <r>     9.4245     0.0000     0.0000 </r>
       <r>     9.5582     0.0000     0.0000 </r>
       <r>     9.6919     0.0000     0.0000 </r>
       <r>     9.8257     0.0000     0.0000 </r>
       <r>     9.9594     0.0000     0.0000 </r>
       <r>    10.0931     0.0000     0.0000 </r>
       <r>    10.2268     0.0000     0.0000 </r>
       <r>    10.3605     0.0000     0.0000 </r>
       <r>    10.4943     0.0000     0.0000 </r>
       <r>    10.6280     0.0000     0.0000 </r>
       <r>    10.7617     0.0000     0.0000 </r>
       <r>    10.8954     0.0000     0.0000 </r>
       <r>    11.0292     0.0000     0.0000 </r>
       <r>    11.1629     0.0000     0.0000 </r>
       <r>    11.2966     0.0000     0.0000 </r>
       <r>    11.4303     0.0000     0.0000 </r>
       <r>    11.5640     0.0000     0.0000 </r>
       <r>    11.6978     0.0000     0.0000 </r>
       <r>    11.8315     0.0000     0.0000 </r>
       <r>    11.9652     0.0000     0.0000 </r>
       <r>    12.0989     0.0000     0.0000 </r>
       <r>    12.2327     0.0000     0.0000 </r>
       <r>    12.3664     0.0000     0.0000 </r>
       <r>    12.5001     0.0000     0.0000 </r>
       <r>    12.6338     0.0000     0.0000 </r>
       <r>    12.7676     0.0000     0.0000 </r>
       <r>    12.9013     0.0000     0.0000 </r>
       <r>    13.0350     0.0000     0.0000 </r>
       <r>    13.1687     0.0000     0.0000 </r>
       <r>    13.3024     0.0000     0.0000 </r>
       <r>    13.4362     0.0000     0.0000 </r>
       <r>    13.5699     0.0000     0.0000 </r>
       <r>    13.7036     0.0000     0.0000 </r>
       <r>    13.8373     0.0000     0.0000 </r>
       <r>    13.9711     0.0000     0.0000 </r>
       <r>    14.1048     0.0000     0.0000 </r>
       <r>    14.2385     0.0000     0.0000 </r>
       <r>    14.3722     0.0000     0.0000 </r>
       <r>    14.5060     0.0000     0.0000 </r>
       <r>    14.6397     0.0000     0.0000 </r>
       <r>    14.7734     0.0000     0.0000 </r>
       <r>    14.9071     0.0000     0.0000 </r>
       <r>    15.0408     0.0000     0.0000 </r>
       <r>    15.1746     0.0000     0.0000 </r>
       <r>    15.3083     0.0000     0.0000 </r>
       <r>    15.4420     0.0000     0.0000 </r>
       <r>    15.5757     0.0000     0.0000 </r>
       <r>    15.7095     0.0000     0.0000 </r>
       <r>    15.8432     0.0000     0.0000 </r>
       <r>    15.9769     0.0000     0.0000 </r>
       <r>    16.1106     0.0000     0.0000 </r>
       <r>    16.2443     0.0000     0.0000 </r>
       <r>    16.3781     0.0000     0.0000 </r>
       <r>    16.5118     0.0000     0.0000 </r>
       <r>    16.6455     0.0000     0.0000 </r>
       <r>    16.7792     0.0000     0.0000 </r>
       <r>    16.9130     0.0000     0.0000 </r>
       <r>    17.0467     0.0000     0.0000 </r>
       <r>    17.1804     0.0000     0.0000 </r>
       <r>    17.3141     0.0000     0.0000 </r>
       <r>    17.4479     0.0000     0.0000 </r>
       <r>    17.5816     0.0000     0.0000 </r>
       <r>    17.7153     0.0000     0.0000 </r>
      </set>
      <set comment="spin 4">
       <r>   -22.4016     0.0000     0.0000 </r>
       <r>   -22.2678     0.0000     0.0000 </r>
       <r>   -22.1341     0.0000     0.0000 </r>
       <r>   -22.0004     0.0000     0.0000 </r>
       <r>   -21.8667     0.0000     0.0000 </r>
       <r>   -21.7329     0.0000     0.0000 </r>
       <r>   -21.5992     0.0000     0.0000 </r>
       <r>   -21.4655     0.0000     0.0000 </r>
       <r>   -21.3318     0.0000     0.0000 </r>
       <r>   -21.1980     0.0000     0.0000 </r>
       <r>   -21.0643     0.0000     0.0000 </r>
       <r>   -20.9306     0.0000     0.0000 </r>
       <r>   -20.7969     0.0000     0.0000 </r>
       <r>   -20.6632     0.0000     0.0000 </r>
       <r>   -20.5294     0.0000     0.0000 </r>
       <r>   -20.3957     0.0000     0.0000 </r>
       <r>   -20.2620     0.0000     0.0000 </r>
       <r>   -20.1283     0.0000     0.0000 </r>
       <r>   -19.9945     0.0000     0.0000 </r>
       <r>   -19.8608     0.0000     0.0000 </r>
       <r>   -19.7271     0.0000     0.0000 </r>
       <r>   -19.5934     0.0000     0.0000 </r>
       <r>   -19.4597     0.0000     0.0000 </r>
       <r>   -19.3259     0.0000     0.0000 </r>
       <r>   -19.1922     0.0000     0.0000 </r>
       <r>   -19.0585     0.0000     0.0000 </r>
       <r>   -18.9248     0.0000     0.0000 </r>
       <r>   -18.7910     0.0000     0.0000 </r>
       <r>   -18.6573     0.0000     0.0000 </r>
       <r>   -18.5236     0.0000     0.0000 </r>
       <r>   -18.3899     0.0000     0.0000 </r>
       <r>   -18.2561     0.0000     0.0000 </r>
       <r>   -18.1224     0.0000     0.0000 </r>
       <r>   -17.9887     0.0000     0.0000 </r>
       <r>   -17.8550     0.0000     0.0000 </r>
       <r>   -17.7213     0.0000     0.0000 </r>
       <r>   -17.5875     0.0000     0.0000 </r>
       <r>   -17.4538     0.0000     0.0000 </r>
       <r>   -17.3201     0.0000     0.0000 </r>
       <r>   -17.1864     0.0000     0.0000 </r>
       <r>   -17.0526     0.0000     0.0000 </r>
       <r>   -16.9189     0.0000     0.0000 </r>
       <r>   -16.7852     0.0000     0.0000 </r>
       <r>   -16.6515     0.0000     0.0000 </r>
       <r>   -16.5177     0.0000     0.0000 </r>
       <r>   -16.3840     0.0000     0.0000 </r>
       <r>   -16.2503     0.0000     0.0000 </r>
       <r>   -16.1166     0.0000     0.0000 </r>
       <r>   -15.9829     0.0000     0.0000 </r>
       <r>   -15.8491     0.0000     0.0000 </r>
       <r>   -15.7154     0.0000     0.0000 </r>
       <r>   -15.5817     0.0000     0.0000 </r>
       <r>   -15.4480     0.0000     0.0000 </r>
       <r>   -15.3142     0.0000     0.0000 </r>
       <r>   -15.1805     0.0000     0.0000 </r>
       <r>   -15.0468     0.0000     0.0000 </r>
       <r>   -14.9131     0.0000     0.0000 </r>
       <r>   -14.7794     0.0000     0.0000 </r>
       <r>   -14.6456     0.0000     0.0000 </r>
       <r>   -14.5119     0.0000     0.0000 </r>
       <r>   -14.3782     0.0000     0.0000 </r>
       <r>   -14.2445     0.0000     0.0000 </r>
       <r>   -14.1107     0.0000     0.0000 </r>
       <r>   -13.9770     0.0000     0.0000 </r>
       <r>   -13.8433     0.0000     0.0000 </r>
       <r>   -13.7096     0.0000     0.0000 </r>
       <r>   -13.5758     0.0000     0.0000 </r>
       <r>   -13.4421     0.0000     0.0000 </r>
       <r>   -13.3084     0.0000     0.0000 </r>
       <r>   -13.1747     0.0000     0.0000 </r>
       <r>   -13.0410     0.0000     0.0000 </r>
       <r>   -12.9072     0.0000     0.0000 </r>
       <r>   -12.7735     0.0000     0.0000 </r>
       <r>   -12.6398     0.0000     0.0000 </r>
       <r>   -12.5061     0.0000     0.0000 </r>
       <r>   -12.3723     0.0000     0.0000 </r>
       <r>   -12.2386     0.0000     0.0000 </r>
       <r>   -12.1049     0.0000     0.0000 </r>
       <r>   -11.9712     0.0000     0.0000 </r>
       <r>   -11.8374     0.0000     0.0000 </r>
       <r>   -11.7037     0.0000     0.0000 </r>
       <r>   -11.5700     0.0000     0.0000 </r>
       <r>   -11.4363     0.0000     0.0000 </r>
       <r>   -11.3026     0.0000     0.0000 </r>
       <r>   -11.1688     0.0000     0.0000 </r>
       <r>   -11.0351     0.0000     0.0000 </r>
       <r>   -10.9014     0.0000     0.0000 </r>
       <r>   -10.7677     0.0000     0.0000 </r>
       <r>   -10.6339     0.0000     0.0000 </r>
       <r>   -10.5002     0.0000     0.0000 </r>
       <r>   -10.3665     0.0000     0.0000 </r>
       <r>   -10.2328     0.0000     0.0000 </r>
       <r>   -10.0991     0.0000     0.0000 </r>
       <r>    -9.9653     0.0000     0.0000 </r>
       <r>    -9.8316     0.0000     0.0000 </r>
       <r>    -9.6979     0.0000     0.0000 </r>
       <r>    -9.5642     0.0000     0.0000 </r>
       <r>    -9.4304     0.0000     0.0000 </r>
       <r>    -9.2967     0.0000     0.0000 </r>
       <r>    -9.1630     0.0000     0.0000 </r>
       <r>    -9.0293     0.0000     0.0000 </r>
       <r>    -8.8955     0.0000     0.0000 </r>
       <r>    -8.7618     0.0000     0.0000 </r>
       <r>    -8.6281     0.0000     0.0000 </r>
       <r>    -8.4944     0.0000     0.0000 </r>
       <r>    -8.3607     0.0000     0.0000 </r>
       <r>    -8.2269     0.0000     0.0000 </r>
       <r>    -8.0932     0.0000     0.0000 </r>
       <r>    -7.9595     0.0000     0.0000 </r>
       <r>    -7.8258     0.0000     0.0000 </r>
       <r>    -7.6920     0.0000     0.0000 </r>
       <r>    -7.5583     0.0000     0.0000 </r>
       <r>    -7.4246     0.0000     0.0000 </r>
       <r>    -7.2909     0.0000     0.0000 </r>
       <r>    -7.1571     0.0000     0.0000 </r>
       <r>    -7.0234     0.0000     0.0000 </r>
       <r>    -6.8897     0.0000     0.0000 </r>
       <r>    -6.7560     0.0000     0.0000 </r>
       <r>    -6.6223     0.0000     0.0000 </r>
       <r>    -6.4885     0.0000     0.0000 </r>
       <r>    -6.3548     0.0000     0.0000 </r>
       <r>    -6.2211     0.0000     0.0000 </r>
       <r>    -6.0874     0.0000     0.0000 </r>
       <r>    -5.9536     0.0000     0.0000 </r>
       <r>    -5.8199     0.0000     0.0000 </r>
       <r>    -5.6862     0.0000     0.0000 </r>
       <r>    -5.5525     0.0000     0.0000 </r>
       <r>    -5.4188     0.0000     0.0000 </r>
       <r>    -5.2850     0.0000     0.0000 </r>
       <r>    -5.1513     0.0000     0.0000 </r>
       <r>    -5.0176     0.0000     0.0000 </r>
       <r>    -4.8839     0.0000     0.0000 </r>
       <r>    -4.7501     0.0000     0.0000 </r>
       <r>    -4.6164     0.0000     0.0000 </r>
       <r>    -4.4827     0.0000     0.0000 </r>
       <r>    -4.3490     0.0000     0.0000 </r>
       <r>    -4.2152     0.0000     0.0000 </r>
       <r>    -4.0815     0.0000     0.0000 </r>
       <r>    -3.9478     0.0000     0.0000 </r>
       <r>    -3.8141     0.0000     0.0000 </r>
       <r>    -3.6804     0.0000     0.0000 </r>
       <r>    -3.5466     0.0000     0.0000 </r>
       <r>    -3.4129     0.0000     0.0000 </r>
       <r>    -3.2792     0.0000     0.0000 </r>
       <r>    -3.1455     0.0000     0.0000 </r>
       <r>    -3.0117     0.0000     0.0000 </r>
       <r>    -2.8780     0.0000     0.0000 </r>
       <r>    -2.7443     0.0000     0.0000 </r>
       <r>    -2.6106     0.0000     0.0000 </r>
       <r>    -2.4769     0.0000     0.0000 </r>
       <r>    -2.3431     0.0000     0.0000 </r>
       <r>    -2.2094     0.0000     0.0000 </r>
       <r>    -2.0757     0.0000     0.0000 </r>
       <r>    -1.9420     0.0000     0.0000 </r>
       <r>    -1.8082     0.0000     0.0000 </r>
       <r>    -1.6745     0.0000     0.0000 </r>
       <r>    -1.5408     0.0000     0.0000 </r>
       <r>    -1.4071     0.0000     0.0000 </r>
       <r>    -1.2733     0.0000     0.0000 </r>
       <r>    -1.1396     0.0000     0.0000 </r>
       <r>    -1.0059     0.0000     0.0000 </r>
       <r>    -0.8722     0.0000     0.0000 </r>
       <r>    -0.7385     0.0000     0.0000 </r>
       <r>    -0.6047     0.0000     0.0000 </r>
       <r>    -0.4710     0.0000     0.0000 </r>
       <r>    -0.3373     0.0000     0.0000 </r>
       <r>    -0.2036     0.0000     0.0000 </r>
       <r>    -0.0698     0.0000     0.0000 </r>
       <r>     0.0639     0.0000     0.0000 </r>
       <r>     0.1976     0.0000     0.0000 </r>
       <r>     0.3313     0.0000     0.0000 </r>
       <r>     0.4651     0.0000     0.0000 </r>
       <r>     0.5988     0.0000     0.0000 </r>
       <r>     0.7325     0.0000     0.0000 </r>
       <r>     0.8662     0.0000     0.0000 </r>
       <r>     0.9999     0.0000     0.0000 </r>
       <r>     1.1337     0.0000     0.0000 </r>
       <r>     1.2674     0.0000     0.0000 </r>
       <r>     1.4011     0.0000     0.0000 </r>
       <r>     1.5348     0.0000     0.0000 </r>
       <r>     1.6686     0.0000     0.0000 </r>
       <r>     1.8023     0.0000     0.0000 </r>
       <r>     1.9360     0.0000     0.0000 </r>
       <r>     2.0697     0.0000     0.0000 </r>
       <r>     2.2034     0.0000     0.0000 </r>
       <r>     2.3372     0.0000     0.0000 </r>
       <r>     2.4709     0.0000     0.0000 </r>
       <r>     2.6046     0.0000     0.0000 </r>
       <r>     2.7383     0.0000     0.0000 </r>
       <r>     2.8721     0.0000     0.0000 </r>
       <r>     3.0058     0.0000     0.0000 </r>
       <r>     3.1395     0.0000     0.0000 </r>
       <r>     3.2732     0.0000     0.0000 </r>
       <r>     3.4070     0.0000     0.0000 </r>
       <r>     3.5407     0.0000     0.0000 </r>
       <r>     3.6744     0.0000     0.0000 </r>
       <r>     3.8081     0.0000     0.0000 </r>
       <r>     3.9418     0.0000     0.0000 </r>
       <r>     4.0756     0.0000     0.0000 </r>
       <r>     4.2093     0.0000     0.0000 </r>
       <r>     4.3430     0.0000     0.0000 </r>
       <r>     4.4767     0.0000     0.0000 </r>
       <r>     4.6105     0.0000     0.0000 </r>
       <r>     4.7442     0.0000     0.0000 </r>
       <r>     4.8779     0.0000     0.0000 </r>
       <r>     5.0116     0.0000     0.0000 </r>
       <r>     5.1454     0.0000     0.0000 </r>
       <r>     5.2791     0.0000     0.0000 </r>
       <r>     5.4128     0.0000     0.0000 </r>
       <r>     5.5465     0.0000     0.0000 </r>
       <r>     5.6802     0.0000     0.0000 </r>
       <r>     5.8140     0.0000     0.0000 </r>
       <r>     5.9477     0.0000     0.0000 </r>
       <r>     6.0814     0.0000     0.0000 </r>
       <r>     6.2151     0.0000     0.0000 </r>
       <r>     6.3489     0.0000     0.0000 </r>
       <r>     6.4826     0.0000     0.0000 </r>
       <r>     6.6163     0.0000     0.0000 </r>
       <r>     6.7500     0.0000     0.0000 </r>
       <r>     6.8837     0.0000     0.0000 </r>
       <r>     7.0175     0.0000     0.0000 </r>
       <r>     7.1512     0.0000     0.0000 </r>
       <r>     7.2849     0.0000     0.0000 </r>
       <r>     7.4186     0.0000     0.0000 </r>
       <r>     7.5524     0.0000     0.0000 </r>
       <r>     7.6861     0.0000     0.0000 </r>
       <r>     7.8198     0.0000     0.0000 </r>
       <r>     7.9535     0.0000     0.0000 </r>
       <r>     8.0873     0.0000     0.0000 </r>
       <r>     8.2210     0.0000     0.0000 </r>
       <r>     8.3547     0.0000     0.0000 </r>
       <r>     8.4884     0.0000     0.0000 </r>
       <r>     8.6221     0.0000     0.0000 </r>
       <r>     8.7559     0.0000     0.0000 </r>
       <r>     8.8896     0.0000     0.0000 </r>
       <r>     9.0233     0.0000     0.0000 </r>
       <r>     9.1570     0.0000     0.0000 </r>
       <r>     9.2908     0.0000     0.0000 </r>
       <r>     9.4245     0.0000     0.0000 </r>
       <r>     9.5582     0.0000     0.0000 </r>
       <r>     9.6919     0.0000     0.0000 </r>
       <r>     9.8257     0.0000     0.0000 </r>
       <r>     9.9594     0.0000     0.0000 </r>
       <r>    10.0931     0.0000     0.0000 </r>
       <r>    10.2268     0.0000     0.0000 </r>
       <r>    10.3605     0.0000     0.0000 </r>
       <r>    10.4943     0.0000     0.0000 </r>
       <r>    10.6280     0.0000     0.0000 </r>
       <r>    10.7617     0.0000     0.0000 </r>
       <r>    10.8954     0.0000     0.0000 </r>
       <r>    11.0292     0.0000     0.0000 </r>
       <r>    11.1629     0.0000     0.0000 </r>
       <r>    11.2966     0.0000     0.0000 </r>
       <r>    11.4303     0.0000     0.0000 </r>
       <r>    11.5640     0.0000     0.0000 </r>
       <r>    11.6978     0.0000     0.0000 </r>
       <r>    11.8315     0.0000     0.0000 </r>
       <r>    11.9652     0.0000     0.0000 </r>
       <r>    12.0989     0.0000     0.0000 </r>
       <r>    12.2327     0.0000     0.0000 </r>
       <r>    12.3664     0.0000     0.0000 </r>
       <r>    12.5001     0.0000     0.0000 </r>
       <r>    12.6338     0.0000     0.0000 </r>
       <r>    12.7676     0.0000     0.0000 </r>
       <r>    12.9013     0.0000     0.0000 </r>
       <r>    13.0350     0.0000     0.0000 </r>
       <r>    13.1687     0.0000     0.0000 </r>
       <r>    13.3024     0.0000     0.0000 </r>
       <r>    13.4362     0.0000     0.0000 </r>
       <r>    13.5699     0.0000     0.0000 </r>
       <r>    13.7036     0.0000     0.0000 </r>
       <r>    13.8373     0.0000     0.0000 </r>
       <r>    13.9711     0.0000     0.0000 </r>
       <r>    14.1048     0.0000     0.0000 </r>
       <r>    14.2385     0.0000     0.0000 </r>
       <r>    14.3722     0.0000     0.0000 </r>
       <r>    14.5060     0.0000     0.0000 </r>
       <r>    14.6397     0.0000     0.0000 </r>
       <r>    14.7734     0.0000     0.0000 </r>
       <r>    14.9071     0.0000     0.0000 </r>
       <r>    15.0408     0.0000     0.0000 </r>
       <r>    15.1746     0.0000     0.0000 </r>
       <r>    15.3083     0.0000     0.0000 </r>
       <r>    15.4420     0.0000     0.0000 </r>
       <r>    15.5757     0.0000     0.0000 </r>
       <r>    15.7095     0.0000     0.0000 </r>
       <r>    15.8432     0.0000     0.0000 </r>
       <r>    15.9769     0.0000     0.0000 </r>
       <r>    16.1106     0.0000     0.0000 </r>
       <r>    16.2443     0.0000     0.0000 </r>
       <r>    16.3781     0.0000     0.0000 </r>
       <r>    16.5118     0.0000     0.0000 </r>
       <r>    16.6455     0.0000     0.0000 </r>
       <r>    16.7792     0.0000     0.0000 </r>
       <r>    16.9130     0.0000     0.0000 </r>
       <r>    17.0467     0.0000     0.0000 </r>
       <r>    17.1804     0.0000     0.0000 </r>
       <r>    17.3141     0.0000     0.0000 </r>
       <r>    17.4479     0.0000     0.0000 </r>
       <r>    17.5816     0.0000     0.0000 </r>
       <r>    17.7153     0.0000     0.0000 </r>
      </set>
     </set>
    </array>
   </total>
  </dos>
 </calculation>
 <structure name="finalpos" >
  <crystal>
   <varray name="basis" >
    <v>       4.00933418       0.00000000       0.00000000 </v>
    <v>       2.00466709       3.47218525      -0.00000000 </v>
    <v>       2.00466709       1.15739508       3.27360765 </v>
   </varray>
   <i name="volume">     45.57238633 </i>
   <varray name="rec_basis" >
    <v>       0.24941797      -0.14400153      -0.10182446 </v>
    <v>       0.00000000       0.28800307      -0.10182446 </v>
    <v>      -0.00000000       0.00000000       0.30547338 </v>
   </varray>
  </crystal>
  <varray name="positions" >
   <v>       0.00000000       0.00000000       0.00000000 </v>
  </varray>
  <varray name="velocities" >
   <v>       0.00000000       0.00000000       0.00000000 </v>
  </varray>
 </structure>
</modeling>
