   1   1   0   0
  0.6532254E+02  0.4520565E-09  0.4520565E-09  0.4520565E-09  0.1000000E-15
  1.000000000000000E-004
  CAR 
 Og_FCC                                  
     56.01110026    -63.66827910  301     -5.62378011      1.00000000
    -63.668  0.0000E+00  0.0000E+00
    -63.269  0.0000E+00  0.0000E+00
    -62.870  0.0000E+00  0.0000E+00
    -62.471  0.0000E+00  0.0000E+00
    -62.073  0.0000E+00  0.0000E+00
    -61.674  0.0000E+00  0.0000E+00
    -61.275  0.0000E+00  0.0000E+00
    -60.876  0.0000E+00  0.0000E+00
    -60.477  0.0000E+00  0.0000E+00
    -60.078  0.0000E+00  0.0000E+00
    -59.679  0.0000E+00  0.0000E+00
    -59.280  0.0000E+00  0.0000E+00
    -58.881  0.0000E+00  0.0000E+00
    -58.482  0.0000E+00  0.0000E+00
    -58.083  0.0000E+00  0.4000E+01
    -57.684  0.0000E+00  0.4000E+01
    -57.285  0.0000E+00  0.4000E+01
    -56.886  0.0000E+00  0.4000E+01
    -56.488  0.0000E+00  0.4000E+01
    -56.089  0.0000E+00  0.4000E+01
    -55.690  0.0000E+00  0.4000E+01
    -55.291  0.0000E+00  0.4000E+01
    -54.892  0.0000E+00  0.4000E+01
    -54.493  0.0000E+00  0.4000E+01
    -54.094  0.0000E+00  0.4000E+01
    -53.695  0.0000E+00  0.4000E+01
    -53.296  0.0000E+00  0.4000E+01
    -52.897  0.0000E+00  0.4000E+01
    -52.498  0.0000E+00  0.1000E+02
    -52.099  0.0000E+00  0.1000E+02
    -51.700  0.0000E+00  0.1000E+02
    -51.301  0.0000E+00  0.1000E+02
    -50.902  0.0000E+00  0.1000E+02
    -50.504  0.0000E+00  0.1000E+02
    -50.105  0.0000E+00  0.1000E+02
    -49.706  0.0000E+00  0.1000E+02
    -49.307  0.0000E+00  0.1000E+02
    -48.908  0.0000E+00  0.1000E+02
    -48.509  0.0000E+00  0.1000E+02
    -48.110  0.0000E+00  0.1000E+02
    -47.711  0.0000E+00  0.1000E+02
    -47.312  0.0000E+00  0.1000E+02
    -46.913  0.0000E+00  0.1000E+02
    -46.514  0.0000E+00  0.1000E+02
    -46.115  0.0000E+00  0.1000E+02
    -45.716  0.0000E+00  0.1000E+02
    -45.317  0.0000E+00  0.1000E+02
    -44.919  0.0000E+00  0.1000E+02
    -44.520  0.0000E+00  0.1000E+02
    -44.121  0.0000E+00  0.1000E+02
    -43.722  0.0000E+00  0.1000E+02
    -43.323  0.0000E+00  0.1000E+02
    -42.924  0.0000E+00  0.1000E+02
    -42.525  0.0000E+00  0.1000E+02
    -42.126  0.0000E+00  0.1000E+02
    -41.727  0.0000E+00  0.1000E+02
    -41.328  0.0000E+00  0.1000E+02
    -40.929  0.0000E+00  0.1000E+02
    -40.530  0.0000E+00  0.1000E+02
    -40.131  0.0000E+00  0.1000E+02
    -39.732  0.0000E+00  0.1000E+02
    -39.333  0.0000E+00  0.1000E+02
    -38.935  0.0000E+00  0.1000E+02
    -38.536  0.0000E+00  0.1000E+02
    -38.137  0.0000E+00  0.1000E+02
    -37.738  0.0000E+00  0.1000E+02
    -37.339  0.0000E+00  0.1000E+02
    -36.940  0.0000E+00  0.1000E+02
    -36.541  0.0000E+00  0.1000E+02
    -36.142  0.0000E+00  0.1000E+02
    -35.743  0.0000E+00  0.1000E+02
    -35.344  0.0000E+00  0.1000E+02
    -34.945  0.0000E+00  0.1000E+02
    -34.546  0.0000E+00  0.1000E+02
    -34.147  0.0000E+00  0.1000E+02
    -33.748  0.0000E+00  0.1000E+02
    -33.350  0.0000E+00  0.1000E+02
    -32.951  0.0000E+00  0.1000E+02
    -32.552  0.0000E+00  0.1000E+02
    -32.153  0.0000E+00  0.1000E+02
    -31.754  0.0000E+00  0.1000E+02
    -31.355  0.0000E+00  0.1000E+02
    -30.956  0.0000E+00  0.1000E+02
    -30.557  0.0000E+00  0.1000E+02
    -30.158  0.0000E+00  0.1000E+02
    -29.759  0.0000E+00  0.1000E+02
    -29.360  0.0000E+00  0.1000E+02
    -28.961  0.0000E+00  0.1000E+02
    -28.562  0.0000E+00  0.1000E+02
    -28.163  0.0000E+00  0.1000E+02
    -27.764  0.0000E+00  0.1000E+02
    -27.366  0.0000E+00  0.1000E+02
    -26.967  0.0000E+00  0.1000E+02
    -26.568  0.0000E+00  0.1000E+02
    -26.169  0.0000E+00  0.1000E+02
    -25.770  0.0000E+00  0.1000E+02
    -25.371  0.0000E+00  0.1000E+02
    -24.972  0.0000E+00  0.1000E+02
    -24.573  0.0000E+00  0.1000E+02
    -24.174  0.0000E+00  0.1000E+02
    -23.775  0.0000E+00  0.1000E+02
    -23.376  0.0000E+00  0.1000E+02
    -22.977  0.0000E+00  0.1000E+02
    -22.578  0.0000E+00  0.1000E+02
    -22.179  0.0000E+00  0.1000E+02
    -21.780  0.2745E+00  0.1200E+02
    -21.382  0.0000E+00  0.1200E+02
    -20.983  0.0000E+00  0.1200E+02
    -20.584  0.0000E+00  0.1200E+02
    -20.185  0.0000E+00  0.1200E+02
    -19.786  0.0000E+00  0.1200E+02
    -19.387  0.0000E+00  0.1200E+02
    -18.988  0.0000E+00  0.1200E+02
    -18.589  0.0000E+00  0.1200E+02
    -18.190  0.0000E+00  0.1200E+02
    -17.791  0.0000E+00  0.1200E+02
    -17.392  0.0000E+00  0.1200E+02
    -16.993  0.0000E+00  0.1200E+02
    -16.594  0.0000E+00  0.1200E+02
    -16.195  0.0000E+00  0.1200E+02
    -15.797  0.0000E+00  0.1200E+02
    -15.398  0.0000E+00  0.1200E+02
    -14.999  0.0000E+00  0.1200E+02
    -14.600  0.0000E+00  0.1200E+02
    -14.201  0.0000E+00  0.1200E+02
    -13.802  0.0000E+00  0.1200E+02
    -13.403  0.0000E+00  0.1200E+02
    -13.004  0.0000E+00  0.1200E+02
    -12.605  0.0000E+00  0.1200E+02
    -12.206  0.0000E+00  0.1200E+02
    -11.807  0.0000E+00  0.1200E+02
    -11.408  0.0000E+00  0.1200E+02
    -11.009  0.0000E+00  0.1375E+02
    -10.610  0.0000E+00  0.1400E+02
    -10.211  0.0000E+00  0.1400E+02
     -9.813  0.0000E+00  0.1400E+02
     -9.414  0.0000E+00  0.1400E+02
     -9.015  0.0000E+00  0.1400E+02
     -8.616  0.0000E+00  0.1400E+02
     -8.217  0.0000E+00  0.1400E+02
     -7.818  0.0000E+00  0.1400E+02
     -7.419  0.0000E+00  0.1400E+02
     -7.020  0.3465E+00  0.1509E+02
     -6.621  0.0000E+00  0.1586E+02
     -6.222  0.7055E-02  0.1706E+02
     -5.823  0.0000E+00  0.1798E+02
     -5.424  0.0000E+00  0.1800E+02
     -5.025  0.0000E+00  0.1800E+02
     -4.626  0.0000E+00  0.1800E+02
     -4.228  0.0000E+00  0.1800E+02
     -3.829  0.0000E+00  0.1800E+02
     -3.430  0.0000E+00  0.1800E+02
     -3.031  0.0000E+00  0.1800E+02
     -2.632  0.0000E+00  0.1800E+02
     -2.233  0.0000E+00  0.1800E+02
     -1.834  0.0000E+00  0.1800E+02
     -1.435  0.0000E+00  0.1800E+02
     -1.036  0.0000E+00  0.1800E+02
     -0.637  0.0000E+00  0.1800E+02
     -0.238  0.0000E+00  0.1800E+02
      0.161  0.0000E+00  0.1800E+02
      0.560  0.0000E+00  0.1800E+02
      0.959  0.0000E+00  0.1800E+02
      1.358  0.0000E+00  0.1800E+02
      1.756  0.0000E+00  0.1800E+02
      2.155  0.0000E+00  0.1800E+02
      2.554  0.0000E+00  0.1800E+02
      2.953  0.0000E+00  0.1800E+02
      3.352  0.0000E+00  0.1801E+02
      3.751  0.0000E+00  0.1801E+02
      4.150  0.0000E+00  0.1808E+02
      4.549  0.0000E+00  0.1814E+02
      4.948  0.0000E+00  0.1825E+02
      5.347  0.9284E-01  0.1867E+02
      5.746  0.0000E+00  0.1889E+02
      6.145  0.0000E+00  0.1967E+02
      6.544  0.0000E+00  0.2003E+02
      6.943  0.0000E+00  0.2031E+02
      7.341  0.0000E+00  0.2119E+02
      7.740  0.0000E+00  0.2186E+02
      8.139  0.0000E+00  0.2210E+02
      8.538  0.0000E+00  0.2327E+02
      8.937  0.0000E+00  0.2379E+02
      9.336  0.0000E+00  0.2419E+02
      9.735  0.0000E+00  0.2503E+02
     10.134  0.0000E+00  0.2553E+02
     10.533  0.0000E+00  0.2586E+02
     10.932  0.1857E+00  0.2644E+02
     11.331  0.0000E+00  0.2680E+02
     11.730  0.5570E+00  0.2798E+02
     12.129  0.0000E+00  0.2815E+02
     12.528  0.0000E+00  0.2845E+02
     12.927  0.0000E+00  0.2926E+02
     13.325  0.0000E+00  0.3012E+02
     13.724  0.0000E+00  0.3058E+02
     14.123  0.0000E+00  0.3110E+02
     14.522  0.2785E+00  0.3178E+02
     14.921  0.2683E+00  0.3313E+02
     15.320  0.0000E+00  0.3398E+02
     15.719  0.0000E+00  0.3459E+02
     16.118  0.0000E+00  0.3557E+02
     16.517  0.5570E+00  0.3654E+02
     16.916  0.0000E+00  0.3827E+02
     17.315  0.1392E+00  0.3969E+02
     17.714  0.0000E+00  0.4205E+02
     18.113  0.0000E+00  0.4269E+02
     18.512  0.0000E+00  0.4442E+02
     18.910  0.0000E+00  0.4571E+02
     19.309  0.0000E+00  0.4722E+02
     19.708  0.1393E+00  0.4775E+02
     20.107  0.2785E+00  0.4910E+02
     20.506  0.0000E+00  0.5007E+02
     20.905  0.0000E+00  0.5082E+02
     21.304  0.0000E+00  0.5167E+02
     21.703  0.0000E+00  0.5318E+02
     22.102  0.0000E+00  0.5453E+02
     22.501  0.0000E+00  0.5549E+02
     22.900  0.4642E-01  0.5684E+02
     23.299  0.0000E+00  0.5768E+02
     23.698  0.0000E+00  0.5799E+02
     24.097  0.0000E+00  0.5856E+02
     24.496  0.1684E+00  0.5971E+02
     24.894  0.0000E+00  0.6064E+02
     25.293  0.0000E+00  0.6148E+02
     25.692  0.0000E+00  0.6288E+02
     26.091  0.6058E-13  0.6325E+02
     26.490  0.0000E+00  0.6427E+02
     26.889  0.0000E+00  0.6544E+02
     27.288  0.2841E-03  0.6628E+02
     27.687  0.0000E+00  0.6724E+02
     28.086  0.0000E+00  0.6862E+02
     28.485  0.0000E+00  0.7062E+02
     28.884  0.0000E+00  0.7144E+02
     29.283  0.0000E+00  0.7230E+02
     29.682  0.0000E+00  0.7252E+02
     30.081  0.0000E+00  0.7319E+02
     30.479  0.0000E+00  0.7435E+02
     30.878  0.0000E+00  0.7506E+02
     31.277  0.0000E+00  0.7631E+02
     31.676  0.6947E-05  0.7787E+02
     32.075  0.0000E+00  0.7898E+02
     32.474  0.0000E+00  0.8043E+02
     32.873  0.0000E+00  0.8151E+02
     33.272  0.5570E+00  0.8277E+02
     33.671  0.0000E+00  0.8332E+02
     34.070  0.0000E+00  0.8421E+02
     34.469  0.1393E+00  0.8539E+02
     34.868  0.0000E+00  0.8631E+02
     35.267  0.0000E+00  0.8735E+02
     35.666  0.0000E+00  0.8870E+02
     36.065  0.5510E+00  0.8934E+02
     36.463  0.0000E+00  0.8989E+02
     36.862  0.0000E+00  0.9110E+02
     37.261  0.0000E+00  0.9228E+02
     37.660  0.0000E+00  0.9351E+02
     38.059  0.2105E-14  0.9489E+02
     38.458  0.0000E+00  0.9567E+02
     38.857  0.0000E+00  0.9693E+02
     39.256  0.0000E+00  0.9759E+02
     39.655  0.0000E+00  0.9887E+02
     40.054  0.0000E+00  0.9983E+02
     40.453  0.0000E+00  0.1018E+03
     40.852  0.5570E+00  0.1026E+03
     41.251  0.0000E+00  0.1038E+03
     41.650  0.5566E+00  0.1054E+03
     42.049  0.0000E+00  0.1065E+03
     42.447  0.0000E+00  0.1083E+03
     42.846  0.1136E-03  0.1084E+03
     43.245  0.7545E-06  0.1094E+03
     43.644  0.0000E+00  0.1102E+03
     44.043  0.0000E+00  0.1122E+03
     44.442  0.6872E-13  0.1136E+03
     44.841  0.0000E+00  0.1149E+03
     45.240  0.0000E+00  0.1164E+03
     45.639  0.0000E+00  0.1175E+03
     46.038  0.0000E+00  0.1188E+03
     46.437  0.3092E-16  0.1199E+03
     46.836  0.0000E+00  0.1203E+03
     47.235  0.2061E-16  0.1216E+03
     47.634  0.0000E+00  0.1224E+03
     48.032  0.0000E+00  0.1232E+03
     48.431  0.0000E+00  0.1244E+03
     48.830  0.9284E-01  0.1259E+03
     49.229  0.0000E+00  0.1270E+03
     49.628  0.0000E+00  0.1277E+03
     50.027  0.0000E+00  0.1280E+03
     50.426  0.0000E+00  0.1280E+03
     50.825  0.0000E+00  0.1280E+03
     51.224  0.0000E+00  0.1280E+03
     51.623  0.0000E+00  0.1280E+03
     52.022  0.0000E+00  0.1280E+03
     52.421  0.0000E+00  0.1280E+03
     52.820  0.0000E+00  0.1280E+03
     53.219  0.0000E+00  0.1280E+03
     53.618  0.0000E+00  0.1280E+03
     54.016  0.0000E+00  0.1280E+03
     54.415  0.0000E+00  0.1280E+03
     54.814  0.0000E+00  0.1280E+03
     55.213  0.0000E+00  0.1280E+03
     55.612  0.0000E+00  0.1280E+03
     56.011  0.0000E+00  0.1280E+03
