   1   1   0   0
  0.6792305E+02  0.4579774E-09  0.4579774E-09  0.4579774E-09  0.1000000E-15
  1.000000000000000E-004
  CAR 
 Og_FCC                                  
     14.22979607    -31.41554468  301      0.27292977      1.00000000
    -31.416  0.0000E+00  0.0000E+00
    -31.263  0.0000E+00  0.0000E+00
    -31.111  0.0000E+00  0.0000E+00
    -30.959  0.0000E+00  0.0000E+00
    -30.807  0.0000E+00  0.0000E+00
    -30.655  0.0000E+00  0.0000E+00
    -30.503  0.0000E+00  0.0000E+00
    -30.350  0.0000E+00  0.0000E+00
    -30.198 -0.1095E-29 -0.1666E-30
    -30.046 -0.2094E-19 -0.3186E-20
    -29.894 -0.3613E-11 -0.5497E-12
    -29.742 -0.5654E-05 -0.8603E-06
    -29.590 -0.6928E-01 -0.1054E-01
    -29.438 -0.1577E+01 -0.2505E+00
    -29.285  0.5960E+02  0.8817E+01
    -29.133  0.8231E+01  0.1007E+02
    -28.981 -0.4559E+00  0.1000E+02
    -28.829 -0.1857E-03  0.1000E+02
    -28.677 -0.5326E-09  0.1000E+02
    -28.525  0.0000E+00  0.1000E+02
    -28.373  0.0000E+00  0.1000E+02
    -28.220  0.0000E+00  0.1000E+02
    -28.068  0.0000E+00  0.1000E+02
    -27.916  0.0000E+00  0.1000E+02
    -27.764  0.0000E+00  0.1000E+02
    -27.612  0.0000E+00  0.1000E+02
    -27.460  0.0000E+00  0.1000E+02
    -27.307  0.0000E+00  0.1000E+02
    -27.155  0.0000E+00  0.1000E+02
    -27.003  0.0000E+00  0.1000E+02
    -26.851  0.0000E+00  0.1000E+02
    -26.699  0.0000E+00  0.1000E+02
    -26.547  0.0000E+00  0.1000E+02
    -26.395  0.0000E+00  0.1000E+02
    -26.242  0.0000E+00  0.1000E+02
    -26.090  0.0000E+00  0.1000E+02
    -25.938  0.0000E+00  0.1000E+02
    -25.786  0.0000E+00  0.1000E+02
    -25.634  0.0000E+00  0.1000E+02
    -25.482  0.0000E+00  0.1000E+02
    -25.329  0.0000E+00  0.1000E+02
    -25.177  0.0000E+00  0.1000E+02
    -25.025  0.0000E+00  0.1000E+02
    -24.873  0.0000E+00  0.1000E+02
    -24.721  0.0000E+00  0.1000E+02
    -24.569  0.0000E+00  0.1000E+02
    -24.417  0.0000E+00  0.1000E+02
    -24.264  0.0000E+00  0.1000E+02
    -24.112  0.0000E+00  0.1000E+02
    -23.960  0.0000E+00  0.1000E+02
    -23.808  0.0000E+00  0.1000E+02
    -23.656  0.0000E+00  0.1000E+02
    -23.504  0.0000E+00  0.1000E+02
    -23.352  0.0000E+00  0.1000E+02
    -23.199 -0.2132E-33  0.1000E+02
    -23.047 -0.8727E-23  0.1000E+02
    -22.895 -0.3588E-14  0.1000E+02
    -22.743 -0.1584E-07  0.1000E+02
    -22.591 -0.7546E-03  0.1000E+02
    -22.439 -0.2802E+00  0.9957E+01
    -22.286  0.5630E+01  0.1081E+02
    -22.134  0.8199E+01  0.1206E+02
    -21.982 -0.4003E+00  0.1200E+02
    -21.830 -0.2233E-02  0.1200E+02
    -21.678 -0.6292E-07  0.1200E+02
    -21.526 -0.1530E-13  0.1200E+02
    -21.374  0.0000E+00  0.1200E+02
    -21.221  0.0000E+00  0.1200E+02
    -21.069  0.0000E+00  0.1200E+02
    -20.917  0.0000E+00  0.1200E+02
    -20.765  0.0000E+00  0.1200E+02
    -20.613  0.0000E+00  0.1200E+02
    -20.461  0.0000E+00  0.1200E+02
    -20.309  0.0000E+00  0.1200E+02
    -20.156  0.0000E+00  0.1200E+02
    -20.004  0.0000E+00  0.1200E+02
    -19.852  0.0000E+00  0.1200E+02
    -19.700  0.0000E+00  0.1200E+02
    -19.548  0.0000E+00  0.1200E+02
    -19.396  0.0000E+00  0.1200E+02
    -19.243  0.0000E+00  0.1200E+02
    -19.091  0.0000E+00  0.1200E+02
    -18.939  0.0000E+00  0.1200E+02
    -18.787  0.0000E+00  0.1200E+02
    -18.635  0.0000E+00  0.1200E+02
    -18.483  0.0000E+00  0.1200E+02
    -18.331  0.0000E+00  0.1200E+02
    -18.178  0.0000E+00  0.1200E+02
    -18.026  0.0000E+00  0.1200E+02
    -17.874  0.0000E+00  0.1200E+02
    -17.722  0.0000E+00  0.1200E+02
    -17.570  0.0000E+00  0.1200E+02
    -17.418  0.0000E+00  0.1200E+02
    -17.265  0.0000E+00  0.1200E+02
    -17.113  0.0000E+00  0.1200E+02
    -16.961  0.0000E+00  0.1200E+02
    -16.809  0.0000E+00  0.1200E+02
    -16.657  0.0000E+00  0.1200E+02
    -16.505  0.0000E+00  0.1200E+02
    -16.353  0.0000E+00  0.1200E+02
    -16.200  0.0000E+00  0.1200E+02
    -16.048  0.0000E+00  0.1200E+02
    -15.896  0.0000E+00  0.1200E+02
    -15.744  0.0000E+00  0.1200E+02
    -15.592  0.0000E+00  0.1200E+02
    -15.440  0.0000E+00  0.1200E+02
    -15.288  0.0000E+00  0.1200E+02
    -15.135  0.0000E+00  0.1200E+02
    -14.983  0.0000E+00  0.1200E+02
    -14.831  0.0000E+00  0.1200E+02
    -14.679  0.0000E+00  0.1200E+02
    -14.527  0.0000E+00  0.1200E+02
    -14.375  0.0000E+00  0.1200E+02
    -14.222  0.0000E+00  0.1200E+02
    -14.070  0.0000E+00  0.1200E+02
    -13.918  0.0000E+00  0.1200E+02
    -13.766  0.0000E+00  0.1200E+02
    -13.614  0.0000E+00  0.1200E+02
    -13.462  0.0000E+00  0.1200E+02
    -13.310  0.0000E+00  0.1200E+02
    -13.157  0.0000E+00  0.1200E+02
    -13.005  0.0000E+00  0.1200E+02
    -12.853  0.0000E+00  0.1200E+02
    -12.701  0.0000E+00  0.1200E+02
    -12.549  0.0000E+00  0.1200E+02
    -12.397  0.0000E+00  0.1200E+02
    -12.245  0.0000E+00  0.1200E+02
    -12.092  0.0000E+00  0.1200E+02
    -11.940  0.0000E+00  0.1200E+02
    -11.788  0.0000E+00  0.1200E+02
    -11.636  0.0000E+00  0.1200E+02
    -11.484  0.0000E+00  0.1200E+02
    -11.332  0.0000E+00  0.1200E+02
    -11.179  0.0000E+00  0.1200E+02
    -11.027  0.0000E+00  0.1200E+02
    -10.875  0.0000E+00  0.1200E+02
    -10.723  0.0000E+00  0.1200E+02
    -10.571  0.0000E+00  0.1200E+02
    -10.419  0.0000E+00  0.1200E+02
    -10.267  0.0000E+00  0.1200E+02
    -10.114  0.0000E+00  0.1200E+02
     -9.962  0.0000E+00  0.1200E+02
     -9.810  0.0000E+00  0.1200E+02
     -9.658  0.0000E+00  0.1200E+02
     -9.506  0.0000E+00  0.1200E+02
     -9.354  0.0000E+00  0.1200E+02
     -9.201  0.0000E+00  0.1200E+02
     -9.049  0.0000E+00  0.1200E+02
     -8.897  0.0000E+00  0.1200E+02
     -8.745  0.0000E+00  0.1200E+02
     -8.593  0.0000E+00  0.1200E+02
     -8.441  0.0000E+00  0.1200E+02
     -8.289  0.0000E+00  0.1200E+02
     -8.136  0.0000E+00  0.1200E+02
     -7.984  0.0000E+00  0.1200E+02
     -7.832  0.0000E+00  0.1200E+02
     -7.680  0.0000E+00  0.1200E+02
     -7.528  0.0000E+00  0.1200E+02
     -7.376  0.0000E+00  0.1200E+02
     -7.224  0.0000E+00  0.1200E+02
     -7.071  0.0000E+00  0.1200E+02
     -6.919  0.0000E+00  0.1200E+02
     -6.767  0.0000E+00  0.1200E+02
     -6.615  0.0000E+00  0.1200E+02
     -6.463  0.0000E+00  0.1200E+02
     -6.311  0.0000E+00  0.1200E+02
     -6.158  0.0000E+00  0.1200E+02
     -6.006  0.0000E+00  0.1200E+02
     -5.854  0.0000E+00  0.1200E+02
     -5.702  0.0000E+00  0.1200E+02
     -5.550  0.0000E+00  0.1200E+02
     -5.398  0.0000E+00  0.1200E+02
     -5.246  0.0000E+00  0.1200E+02
     -5.093  0.0000E+00  0.1200E+02
     -4.941  0.0000E+00  0.1200E+02
     -4.789  0.0000E+00  0.1200E+02
     -4.637  0.0000E+00  0.1200E+02
     -4.485  0.0000E+00  0.1200E+02
     -4.333  0.0000E+00  0.1200E+02
     -4.180  0.0000E+00  0.1200E+02
     -4.028  0.0000E+00  0.1200E+02
     -3.876  0.0000E+00  0.1200E+02
     -3.724  0.0000E+00  0.1200E+02
     -3.572  0.0000E+00  0.1200E+02
     -3.420  0.0000E+00  0.1200E+02
     -3.268  0.0000E+00  0.1200E+02
     -3.115  0.0000E+00  0.1200E+02
     -2.963 -0.6593E-39  0.1200E+02
     -2.811 -0.1688E-27  0.1200E+02
     -2.659 -0.4095E-18  0.1200E+02
     -2.507 -0.9086E-11  0.1200E+02
     -2.355 -0.1950E-05  0.1200E+02
     -2.203 -0.3589E-02  0.1200E+02
     -2.050  0.4654E-01  0.1201E+02
     -1.898  0.6720E+00  0.1211E+02
     -1.746  0.2558E+01  0.1250E+02
     -1.594  0.4576E+01  0.1319E+02
     -1.442  0.2751E+01  0.1361E+02
     -1.290  0.1106E+01  0.1378E+02
     -1.137  0.1369E+01  0.1399E+02
     -0.985  0.1667E+01  0.1424E+02
     -0.833  0.2029E+01  0.1455E+02
     -0.681  0.1752E+01  0.1482E+02
     -0.529  0.4136E+01  0.1545E+02
     -0.377  0.3209E+01  0.1594E+02
     -0.225  0.4846E+01  0.1667E+02
     -0.072  0.4090E+01  0.1730E+02
      0.080  0.3250E+01  0.1779E+02
      0.232  0.1275E+01  0.1798E+02
      0.384  0.1132E+00  0.1800E+02
      0.536 -0.8263E-02  0.1800E+02
      0.688 -0.1006E-04  0.1800E+02
      0.840 -0.1138E-09  0.1800E+02
      0.993 -0.1201E-16  0.1800E+02
      1.145  0.0000E+00  0.1800E+02
      1.297  0.0000E+00  0.1800E+02
      1.449  0.0000E+00  0.1800E+02
      1.601  0.0000E+00  0.1800E+02
      1.753 -0.4869E-31  0.1800E+02
      1.906 -0.3688E-21  0.1800E+02
      2.058 -0.2496E-13  0.1800E+02
      2.210 -0.1510E-07  0.1800E+02
      2.362 -0.6731E-04  0.1800E+02
      2.514  0.8215E-03  0.1800E+02
      2.666  0.1721E-01  0.1800E+02
      2.818  0.1033E-03  0.1800E+02
      2.971 -0.6901E-03  0.1800E+02
      3.123  0.9395E-02  0.1800E+02
      3.275  0.1327E+00  0.1802E+02
      3.427  0.8650E-01  0.1804E+02
      3.579  0.2575E-01  0.1804E+02
      3.731 -0.5599E-02  0.1804E+02
      3.884  0.8553E-01  0.1805E+02
      4.036  0.1360E+00  0.1807E+02
      4.188  0.1033E+00  0.1809E+02
      4.340  0.4722E+00  0.1816E+02
      4.492  0.1626E-02  0.1816E+02
      4.644 -0.1685E-01  0.1816E+02
      4.796  0.3155E+00  0.1821E+02
      4.949  0.4909E+00  0.1828E+02
      5.101  0.7548E+00  0.1840E+02
      5.253  0.2634E+00  0.1844E+02
      5.405  0.1184E+01  0.1862E+02
      5.557  0.8054E+00  0.1874E+02
      5.709  0.4952E+00  0.1882E+02
      5.861  0.1587E+01  0.1906E+02
      6.014  0.1427E+01  0.1927E+02
      6.166  0.1183E+01  0.1945E+02
      6.318  0.1329E+01  0.1966E+02
      6.470  0.5422E+00  0.1974E+02
      6.622  0.3339E+00  0.1979E+02
      6.774  0.1116E+01  0.1996E+02
      6.927  0.4305E+00  0.2002E+02
      7.079  0.9828E+00  0.2017E+02
      7.231  0.1391E+00  0.2020E+02
      7.383  0.6606E+00  0.2030E+02
      7.535  0.9266E+00  0.2044E+02
      7.687  0.2384E+01  0.2080E+02
      7.839  0.2831E+01  0.2123E+02
      7.992  0.1138E+01  0.2140E+02
      8.144  0.1536E+01  0.2164E+02
      8.296  0.4176E+01  0.2227E+02
      8.448  0.1978E+01  0.2257E+02
      8.600  0.7444E+00  0.2269E+02
      8.752  0.2381E+00  0.2272E+02
      8.905  0.5323E+00  0.2280E+02
      9.057  0.6290E+00  0.2290E+02
      9.209  0.3046E+01  0.2336E+02
      9.361  0.3256E+01  0.2386E+02
      9.513  0.1796E+01  0.2413E+02
      9.665  0.1656E+01  0.2438E+02
      9.817  0.2922E+01  0.2483E+02
      9.970  0.1832E+01  0.2511E+02
     10.122  0.6673E+00  0.2521E+02
     10.274  0.7681E+00  0.2533E+02
     10.426  0.6812E+00  0.2543E+02
     10.578  0.3822E+00  0.2549E+02
     10.730  0.7115E+00  0.2560E+02
     10.882  0.3159E+00  0.2564E+02
     11.035  0.9701E+00  0.2579E+02
     11.187  0.6155E+00  0.2588E+02
     11.339  0.4753E+00  0.2596E+02
     11.491  0.1831E+00  0.2598E+02
     11.643 -0.9561E-02  0.2598E+02
     11.795 -0.1500E-04  0.2598E+02
     11.948 -0.6740E-03  0.2598E+02
     12.100  0.1172E-01  0.2599E+02
     12.252  0.9947E-01  0.2600E+02
     12.404 -0.2196E-02  0.2600E+02
     12.556 -0.1311E-03  0.2600E+02
     12.708 -0.1183E-07  0.2600E+02
     12.860 -0.8288E-14  0.2600E+02
     13.013  0.0000E+00  0.2600E+02
     13.165  0.0000E+00  0.2600E+02
     13.317  0.0000E+00  0.2600E+02
     13.469  0.0000E+00  0.2600E+02
     13.621  0.0000E+00  0.2600E+02
     13.773  0.0000E+00  0.2600E+02
     13.925  0.0000E+00  0.2600E+02
     14.078  0.0000E+00  0.2600E+02
     14.230  0.0000E+00  0.2600E+02
