    1    1    1    1
  0.6792305E+02  0.4579774E-09  0.4579774E-09  0.4579774E-09  0.1000000E-15
  1.000000000000000E-004
  CAR 
 Og_FCC                                  
     18     35     13
 
  0.0000000E+00  0.0000000E+00  0.0000000E+00  0.1371742E-02
    1      -29.339483   1.000000
    2      -29.339483   1.000000
    3      -29.339483   1.000000
    4      -29.337917   1.000000
    5      -29.337917   1.000000
    6      -22.324847   1.000000
    7        0.236342   0.787851
    8        0.236342   0.787851
    9        0.236342   0.787851
   10        2.583675  -0.000000
   11        9.365412   0.000000
   12        9.365412   0.000000
   13        9.365570   0.000000
 
  0.1111111E+00 -0.5928623E-17 -0.6938894E-17  0.1097394E-01
    1      -29.339359   1.000000
    2      -29.339258   1.000000
    3      -29.339258   1.000000
    4      -29.337848   1.000000
    5      -29.337848   1.000000
    6      -22.319122   1.000000
    7       -0.260781   1.000000
    8        0.200143   0.969226
    9        0.200143   0.969226
   10        3.187227   0.000000
   11        8.687438   0.000000
   12        9.480529   0.000000
   13        9.480529   0.000000
 
  0.2222222E+00  0.1589833E-16  0.1387779E-16  0.1097394E-01
    1      -29.339015   1.000000
    2      -29.338997   1.000000
    3      -29.338997   1.000000
    4      -29.337353   1.000000
    5      -29.337353   1.000000
    6      -22.304412   1.000000
    7       -1.058964   1.000000
    8        0.111250   1.022291
    9        0.111250   1.022291
   10        4.173872   0.000000
   11        8.394360   0.000000
   12        9.513481   0.000000
   13        9.513482   0.000000
 
  0.3333333E+00 -0.2472476E-16 -0.1387779E-16  0.1097394E-01
    1      -29.339058   1.000000
    2      -29.339058   1.000000
    3      -29.338619   1.000000
    4      -29.336398   1.000000
    5      -29.336398   1.000000
    6      -22.287566   1.000000
    7       -1.685476   1.000000
    8        0.014572   1.000791
    9        0.014572   1.000791
   10        4.770112   0.000000
   11        8.939996   0.000000
   12        9.212129   0.000000
   13        9.212130   0.000000
 
  0.4444444E+00  0.3179666E-16  0.2775558E-16  0.1097394E-01
    1      -29.339181   1.000000
    2      -29.339181   1.000000
    3      -29.338381   1.000000
    4      -29.335729   1.000000
    5      -29.335729   1.000000
    6      -22.276599   1.000000
    7       -2.018500   1.000000
    8       -0.046230   1.000031
    9       -0.046230   1.000031
   10        4.929301   0.000000
   11        8.992139   0.000000
   12        8.992139   0.000000
   13        9.345282   0.000000
 
  0.1111111E+00  0.1111111E+00 -0.4163336E-16  0.8230453E-02
    1      -29.339644   1.000000
    2      -29.338969   1.000000
    3      -29.338969   1.000000
    4      -29.338056   1.000000
    5      -29.337693   1.000000
    6      -22.317196   1.000000
    7       -0.287637   1.000000
    8        0.122949   1.027660
    9        0.122949   1.027660
   10        3.392849   0.000000
   11        8.418310   0.000000
   12        9.632316   0.000000
   13        9.633561   0.000000
 
  0.2222222E+00  0.1111111E+00  0.0000000E+00  0.3292181E-01
    1      -29.339574   1.000000
    2      -29.338591   1.000000
    3      -29.338560   1.000000
    4      -29.337892   1.000000
    5      -29.337224   1.000000
    6      -22.305466   1.000000
    7       -0.886117   1.000000
    8        0.005986   1.000525
    9        0.038683   1.002273
   10        4.259295   0.000000
   11        8.035972   0.000000
   12        9.154219   0.000000
   13        9.841981   0.000000
 
  0.3333333E+00  0.1111111E+00 -0.2775558E-16  0.3292181E-01
    1      -29.339290   1.000000
    2      -29.338575   1.000000
    3      -29.338538   1.000000
    4      -29.337082   1.000000
    5      -29.336317   1.000000
    6      -22.289377   1.000000
    7       -1.496323   1.000000
    8       -0.094226   1.000001
    9       -0.091069   1.000002
   10        5.027336   0.000000
   11        8.281179   0.000000
   12        8.537234   0.000000
   13        9.666705   0.000000
 
  0.4444444E+00  0.1111111E+00  0.0000000E+00  0.3292181E-01
    1      -29.339225   1.000000
    2      -29.338718   1.000000
    3      -29.338260   1.000000
    4      -29.336275   1.000000
    5      -29.335675   1.000000
    6      -22.276393   1.000000
    7       -1.884820   1.000000
    8       -0.233990   1.000000
    9       -0.134835   1.000000
   10        5.326452   0.000000
   11        8.167915   0.000000
   12        9.353336   0.000000
   13        9.355011   0.000000
 
 -0.4444444E+00  0.1111111E+00 -0.2775558E-16  0.3292181E-01
    1      -29.339192   1.000000
    2      -29.338798   1.000000
    3      -29.338147   1.000000
    4      -29.335837   1.000000
    5      -29.335732   1.000000
    6      -22.272713   1.000000
    7       -1.982373   1.000000
    8       -0.323303   1.000000
    9       -0.099984   1.000001
   10        5.376949   0.000000
   11        8.113264   0.000000
   12        9.191278   0.000000
   13       10.048040   0.000000
 
 -0.3333333E+00  0.1111111E+00  0.1387779E-16  0.3292181E-01
    1      -29.339045   1.000000
    2      -29.338743   1.000000
    3      -29.338372   1.000000
    4      -29.336488   1.000000
    5      -29.335948   1.000000
    6      -22.280052   1.000000
    7       -1.778464   1.000000
    8       -0.317234   1.000000
    9       -0.003535   1.000328
   10        5.283283   0.000000
   11        8.349525   0.000000
   12        9.092947   0.000000
   13        9.255742   0.000000
 
 -0.2222222E+00  0.1111111E+00 -0.2775558E-16  0.3292181E-01
    1      -29.338944   1.000000
    2      -29.338781   1.000000
    3      -29.338645   1.000000
    4      -29.337532   1.000000
    5      -29.336590   1.000000
    6      -22.294945   1.000000
    7       -1.312470   1.000000
    8       -0.205553   1.000000
    9        0.113771   1.023455
   10        4.807606   0.000000
   11        8.272790   0.000000
   12        8.848600   0.000000
   13        9.552967   0.000000
 
 -0.1111111E+00  0.1111111E+00 -0.6862710E-17  0.1646091E-01
    1      -29.339262   1.000000
    2      -29.338951   1.000000
    3      -29.338887   1.000000
    4      -29.337965   1.000000
    5      -29.337395   1.000000
    6      -22.310354   1.000000
    7       -0.709683   1.000000
    8       -0.003368   1.000330
    9        0.196294   0.980932
   10        3.898405   0.000000
   11        8.298008   0.000000
   12        9.424573   0.000000
   13        9.636946   0.000000
 
  0.2222222E+00  0.2222222E+00 -0.2775558E-16  0.8230453E-02
    1      -29.340035   1.000000
    2      -29.338393   1.000000
    3      -29.337653   1.000000
    4      -29.337653   1.000000
    5      -29.337112   1.000000
    6      -22.297638   1.000000
    7       -1.043783   1.000000
    8       -0.144136   1.000000
    9       -0.144136   1.000000
   10        4.827659   0.000000
   11        7.518512   0.000000
   12        8.690670   0.000000
   13       10.337634   0.000000
 
  0.3333333E+00  0.2222222E+00 -0.5551115E-16  0.3292181E-01
    1      -29.339974   1.000000
    2      -29.338561   1.000000
    3      -29.337480   1.000000
    4      -29.336889   1.000000
    5      -29.336272   1.000000
    6      -22.284533   1.000000
    7       -1.419882   1.000000
    8       -0.319348   1.000000
    9       -0.267267   1.000000
   10        5.477617   0.000000
   11        7.388734   0.000000
   12        8.294165   0.000000
   13       10.491601   0.000000
 
  0.4444444E+00  0.2222222E+00 -0.2775558E-16  0.3292181E-01
    1      -29.339625   1.000000
    2      -29.338334   1.000000
    3      -29.337633   1.000000
    4      -29.336451   1.000000
    5      -29.335603   1.000000
    6      -22.272268   1.000000
    7       -1.702833   1.000000
    8       -0.578855   1.000000
    9       -0.312710   1.000000
   10        5.898912   0.000000
   11        7.781691   0.000000
   12        8.200286   0.000000
   13       10.200982   0.000000
 
 -0.4444444E+00  0.2222222E+00 -0.5551115E-16  0.3292181E-01
    1      -29.339393   1.000000
    2      -29.337772   1.000000
    3      -29.337685   1.000000
    4      -29.336409   1.000000
    5      -29.335676   1.000000
    6      -22.266594   1.000000
    7       -1.786550   1.000000
    8       -0.816441   1.000000
    9       -0.263383   1.000000
   10        6.110502   0.000000
   11        7.703485   0.000000
   12        9.310312   0.000000
   13        9.899702   0.000000
 
 -0.3333333E+00  0.2222222E+00 -0.1387779E-16  0.3292181E-01
    1      -29.339179   1.000000
    2      -29.337813   1.000000
    3      -29.337677   1.000000
    4      -29.336484   1.000000
    5      -29.336255   1.000000
    6      -22.270268   1.000000
    7       -1.693255   1.000000
    8       -0.878147   1.000000
    9       -0.137777   1.000000
   10        6.197577   0.000000
   11        7.727584   0.000000
   12        9.074057   0.000000
   13        9.749682   0.000000
 
 -0.2222222E+00  0.2222222E+00 -0.2606123E-16  0.1646091E-01
    1      -29.338954   1.000000
    2      -29.338325   1.000000
    3      -29.337762   1.000000
    4      -29.337616   1.000000
    5      -29.336149   1.000000
    6      -22.281481   1.000000
    7       -1.523717   1.000000
    8       -0.645177   1.000000
    9        0.012053   1.000703
   10        5.747477   0.000000
   11        8.093556   0.000000
   12        8.297766   0.000000
   13        9.729919   0.000000
 
  0.3333333E+00  0.3333333E+00 -0.5551115E-16  0.8230453E-02
    1      -29.340467   1.000000
    2      -29.338798   1.000000
    3      -29.336451   1.000000
    4      -29.336138   1.000000
    5      -29.336138   1.000000
    6      -22.275331   1.000000
    7       -1.580569   1.000000
    8       -0.419305   1.000000
    9       -0.419305   1.000000
   10        5.532854   0.000000
   11        6.910808   0.000000
   12        8.842533   0.000000
   13       11.284491   0.000000
 
  0.4444444E+00  0.3333333E+00  0.0000000E+00  0.3292181E-01
    1      -29.340337   1.000000
    2      -29.338832   1.000000
    3      -29.336496   1.000000
    4      -29.335717   1.000000
    5      -29.335466   1.000000
    6      -22.266067   1.000000
    7       -1.725210   1.000000
    8       -0.638553   1.000000
    9       -0.487793   1.000000
   10        5.650071   0.000000
   11        6.967220   0.000000
   12        9.204469   0.000000
   13       11.325497   0.000000
 
 -0.4444444E+00  0.3333333E+00 -0.4163336E-16  0.3292181E-01
    1      -29.339849   1.000000
    2      -29.338321   1.000000
    3      -29.336662   1.000000
    4      -29.335921   1.000000
    5      -29.335489   1.000000
    6      -22.261087   1.000000
    7       -1.671441   1.000000
    8       -1.027067   1.000000
    9       -0.447759   1.000000
   10        5.931033   0.000000
   11        7.632846   0.000000
   12        9.233077   0.000000
   13       10.936371   0.000000
 
 -0.3333333E+00  0.3333333E+00  0.2476692E-16  0.1646091E-01
    1      -29.339466   1.000000
    2      -29.337251   1.000000
    3      -29.336973   1.000000
    4      -29.336684   1.000000
    5      -29.336115   1.000000
    6      -22.262775   1.000000
    7       -1.431048   1.000000
    8       -1.368400   1.000000
    9       -0.313392   1.000000
   10        6.272817   0.000000
   11        8.109528   0.000000
   12        9.428001   0.000000
   13        9.829770   0.000000
 
  0.4444444E+00  0.4444444E+00 -0.5551115E-16  0.8230453E-02
    1      -29.340756   1.000000
    2      -29.339071   1.000000
    3      -29.336008   1.000000
    4      -29.335155   1.000000
    5      -29.335155   1.000000
    6      -22.260682   1.000000
    7       -1.845460   1.000000
    8       -0.585627   1.000000
    9       -0.585627   1.000000
   10        5.337785   0.000000
   11        6.605832   0.000000
   12       10.634404   0.000000
   13       12.155008   0.000000
 
 -0.4444444E+00  0.4444444E+00 -0.5212246E-16  0.1646091E-01
    1      -29.340481   1.000000
    2      -29.338952   1.000000
    3      -29.336101   1.000000
    4      -29.335245   1.000000
    5      -29.335161   1.000000
    6      -22.258744   1.000000
    7       -1.818093   1.000000
    8       -0.765237   1.000000
    9       -0.570559   1.000000
   10        5.498960   0.000000
   11        6.823695   0.000000
   12       10.989742   0.000000
   13       11.066524   0.000000
 
  0.3333333E+00  0.2222222E+00  0.1111111E+00  0.3292181E-01
    1      -29.339477   1.000000
    2      -29.338593   1.000000
    3      -29.337925   1.000000
    4      -29.337711   1.000000
    5      -29.336558   1.000000
    6      -22.293062   1.000000
    7       -1.254098   1.000000
    8       -0.297335   1.000000
    9       -0.010594   1.000228
   10        5.077025   0.000000
   11        7.806387   0.000000
   12        8.478811   0.000000
   13       10.247426   0.000000
 
  0.4444444E+00  0.2222222E+00  0.1111111E+00  0.6584362E-01
    1      -29.339105   1.000000
    2      -29.338627   1.000000
    3      -29.337911   1.000000
    4      -29.336856   1.000000
    5      -29.335968   1.000000
    6      -22.278872   1.000000
    7       -1.609213   1.000000
    8       -0.544242   1.000000
    9       -0.122506   1.000000
   10        5.792962   0.000000
   11        7.910392   0.000000
   12        8.179576   0.000000
   13        9.947254   0.000000
 
 -0.4444444E+00  0.2222222E+00  0.1111111E+00  0.6584362E-01
    1      -29.339074   1.000000
    2      -29.338480   1.000000
    3      -29.337655   1.000000
    4      -29.336379   1.000000
    5      -29.335722   1.000000
    6      -22.269561   1.000000
    7       -1.818903   1.000000
    8       -0.663031   1.000000
    9       -0.220510   1.000000
   10        6.048224   0.000000
   11        7.599353   0.000000
   12        9.294154   0.000000
   13        9.761659   0.000000
 
  0.4444444E+00  0.3333333E+00  0.1111111E+00  0.3292181E-01
    1      -29.339844   1.000000
    2      -29.338658   1.000000
    3      -29.337226   1.000000
    4      -29.336170   1.000000
    5      -29.335872   1.000000
    6      -22.273343   1.000000
    7       -1.604034   1.000000
    8       -0.595921   1.000000
    9       -0.361647   1.000000
   10        5.922929   0.000000
   11        7.330411   0.000000
   12        8.208448   0.000000
   13       10.996467   0.000000
 
 -0.4444444E+00  0.3333333E+00  0.1111111E+00  0.6584362E-01
    1      -29.339348   1.000000
    2      -29.338394   1.000000
    3      -29.337258   1.000000
    4      -29.336147   1.000000
    5      -29.335539   1.000000
    6      -22.264709   1.000000
    7       -1.660681   1.000000
    8       -0.895628   1.000000
    9       -0.451189   1.000000
   10        6.329092   0.000000
   11        7.735009   0.000000
   12        8.191881   0.000000
   13       10.708655   0.000000
 
 -0.3333333E+00  0.3333333E+00  0.1111111E+00  0.6584362E-01
    1      -29.339081   1.000000
    2      -29.337839   1.000000
    3      -29.337027   1.000000
    4      -29.336889   1.000000
    5      -29.335611   1.000000
    6      -22.262725   1.000000
    7       -1.585933   1.000000
    8       -1.131626   1.000000
    9       -0.411477   1.000000
   10        6.649940   0.000000
   11        7.576852   0.000000
   12        9.143202   0.000000
   13        9.724317   0.000000
 
 -0.2222222E+00  0.3333333E+00  0.1111111E+00  0.3292181E-01
    1      -29.338883   1.000000
    2      -29.338276   1.000000
    3      -29.337517   1.000000
    4      -29.336245   1.000000
    5      -29.336229   1.000000
    6      -22.268335   1.000000
    7       -1.593496   1.000000
    8       -0.988755   1.000000
    9       -0.267902   1.000000
   10        6.679614   0.000000
   11        7.422389   0.000000
   12        8.373943   0.000000
   13       10.339650   0.000000
 
 -0.4444444E+00  0.4444444E+00  0.1111111E+00  0.3292181E-01
    1      -29.340081   1.000000
    2      -29.338820   1.000000
    3      -29.336398   1.000000
    4      -29.335673   1.000000
    5      -29.335163   1.000000
    6      -22.260425   1.000000
    7       -1.744929   1.000000
    8       -0.774665   1.000000
    9       -0.620020   1.000000
   10        5.795842   0.000000
   11        7.070329   0.000000
   12        9.538386   0.000000
   13       11.154992   0.000000
 
 -0.3333333E+00  0.4444444E+00  0.1111111E+00  0.3292181E-01
    1      -29.339442   1.000000
    2      -29.338331   1.000000
    3      -29.336552   1.000000
    4      -29.336476   1.000000
    5      -29.335180   1.000000
    6      -22.259115   1.000000
    7       -1.588665   1.000000
    8       -1.109274   1.000000
    9       -0.586946   1.000000
   10        6.234759   0.000000
   11        7.731933   0.000000
   12        9.181575   0.000000
   13        9.823899   0.000000
 
 -0.3333333E+00  0.4444444E+00  0.2222222E+00  0.3292181E-01
    1      -29.338465   1.000000
    2      -29.338398   1.000000
    3      -29.337409   1.000000
    4      -29.336629   1.000000
    5      -29.335171   1.000000
    6      -22.259774   1.000000
    7       -1.472508   1.000000
    8       -1.190768   1.000000
    9       -0.644176   1.000000
   10        6.951814   0.000000
   11        7.836146   0.000000
   12        8.278440   0.000000
   13        9.496851   0.000000
