 vasp.5.4.4.18Apr17-6-g9f103f2a35 (build Jul 09 2018 16:27:08) complex          
  
 executed on             LinuxIFC date 2018.11.26  01:47:37
 running on   16 total cores
 distrk:  each k-point on    4 cores,    4 groups
 distr:  one band on NCORES_PER_BAND=   4 cores,    1 groups


--------------------------------------------------------------------------------------------------------


 INCAR:
 POTCAR:    PAW Og, JanMewes Oct 18               

 ----------------------------------------------------------------------------- 
|                                                                             |
|           W    W    AA    RRRRR   N    N  II  N    N   GGGG   !!!           |
|           W    W   A  A   R    R  NN   N  II  NN   N  G    G  !!!           |
|           W    W  A    A  R    R  N N  N  II  N N  N  G       !!!           |
|           W WW W  AAAAAA  RRRRR   N  N N  II  N  N N  G  GGG   !            |
|           WW  WW  A    A  R   R   N   NN  II  N   NN  G    G                |
|           W    W  A    A  R    R  N    N  II  N    N   GGGG   !!!           |
|                                                                             |
|      You have enabled k-point parallelism (KPAR>1).                         |
|      This developmental code was originally  written by Paul Kent at ORNL,  |
|      and carefully double checked in Vienna.                                |
|      GW as well as linear response parallelism added by Martijn Marsman     |
|      and Georg Kresse.                                                      |
|      Carefully verify results versus KPAR=1.                                |
|      Report problems to Paul Kent and Vienna.                               |
|                                                                             |
 ----------------------------------------------------------------------------- 

 POTCAR:    PAW Og, JanMewes Oct 18               
   VRHFIN =Og : 10d 2s 6p, PE                                                   
   LEXCH  = PE                                                                  
   EATOM  =  2640.5573 eV,  194.0755 Ry                                         
                                                                                
   TITEL  = PAW Og, JanMewes Oct 18                                             
   LULTRA =        F    use ultrasoft PP ?                                      
   IUNSCR =        1    unscreen: 0-lin 1-nonlin 2-no                           
   RPACOR =    1.700    partial core radius                                     
   POMASS =    0.010; ZVAL   =   18.000    mass and valenz                      
   RCORE  =    2.600    outmost cutoff radius                                   
   RWIGS  =    3.500; RWIGS  =    1.852    wigner-seitz radius (au A)           
   ENMAX  =  339.336; ENMIN  =  254.502 eV                                      
   ICORE  =        3    local potential                                         
   LCOR   =        T    correct aug charges                                     
   LPAW   =        T    paw PP                                                  
   EAUG   =  361.025                                                            
   DEXC   =   -0.000                                                            
   RAUG   =    1.300    factor for augmentation sphere                          
   RDEP   =    2.775    radius for radial grids                                 
   RDEPT  =    2.135    core radius for aug-charge                              
   QCUT   =   -4.994; QGAM   =    9.988    optimization parameters              
                                                                                
   Atomic configuration                                                         
   22 entries                                                                   
     n  l   j            E        occ.                                          
     1  0  0.50   -225781.4217   2.0000                                         
     2  0  0.50    -47342.3774   2.0000                                         
     2  1  1.50    -33463.4058   6.0000                                         
     3  0  0.50    -12845.8060   2.0000                                         
     3  1  1.50     -9184.5562   6.0000                                         
     3  2  2.50     -7322.6146  10.0000                                         
     4  0  0.50     -3781.9433   2.0000                                         
     4  1  1.50     -2605.9204   6.0000                                         
     4  2  2.50     -1899.4626  10.0000                                         
     4  3  3.50     -1273.6890  14.0000                                         
     5  0  0.50     -1046.0643   2.0000                                         
     5  1  1.50      -650.9265   6.0000                                         
     5  2  2.50      -388.1490  10.0000                                         
     5  3  3.50      -152.1121  14.0000                                         
     6  0  0.50      -224.6639   2.0000                                         
     6  1  0.50      -184.3267   2.0000                                         
     6  1  1.50       -97.8537   4.0000                                         
     6  2  2.50       -35.6667  10.0000                                         
     7  0  0.50       -28.5889   2.0000                                         
     8  0  0.50        -1.3606   0.0000                                         
     7  1  1.50        -7.0827   6.0000                                         
     6  3  3.50        -0.0136   0.0000                                         
   Description                                                                  
     l       E           TYP  RCUT    TYP  RCUT                                 
     2    -35.6666962     23  2.100                                             
     2     34.0145650     23  2.300                                             
     0    -28.5889381     23  1.600                                             
     0     40.8174780     23  2.200                                             
     1     -7.0826811     23  2.200                                             
     1    148.3035034     23  1.900                                             
     3      6.8029130      7  2.600                                             
  local pseudopotential read in
  partial core-charges read in
  partial kinetic energy density read in
  kinetic energy density of atom read in
  atomic valenz-charges read in
  non local Contribution for L=           2  read in
    real space projection operators read in
  non local Contribution for L=           2  read in
    real space projection operators read in
  non local Contribution for L=           0  read in
    real space projection operators read in
  non local Contribution for L=           0  read in
    real space projection operators read in
  non local Contribution for L=           1  read in
    real space projection operators read in
  non local Contribution for L=           1  read in
    real space projection operators read in
    PAW grid and wavefunctions read in
 
   number of l-projection  operators is LMAX  =           6
   number of lm-projection operators is LMMAX =          18
 

 ----------------------------------------------------------------------------- 
|                                                                             |
|  ADVICE TO THIS USER RUNNING 'VASP/VAMP'   (HEAR YOUR MASTER'S VOICE ...):  |
|                                                                             |
|      You enforced a specific xc-type in the INCAR file,                     |
|      a different type was found on the POTCAR file                          |
|          I HOPE YOU KNOW, WHAT YOU ARE  DOING                               |
|                                                                             |
 ----------------------------------------------------------------------------- 

  PAW Og, JanMewes Oct 18               :
 energy of atom  1       EATOM=-2640.5573
 kinetic energy error for atom=    0.0286 (will be added to EATOM!!)
 
 
 POSCAR: Og_FCC                                  
  positions in direct lattice
  velocities in cartesian coordinates
 exchange correlation table for  LEXCH =       14
   RHO(1)=    0.500       N(1)  =     2000
   RHO(2)=  100.500       N(2)  =     4000
 


--------------------------------------------------------------------------------------------------------


 ion  position               nearest neighbor table
   1  0.000  0.000  0.000-
 
  LATTYP: Found a face centered cubic cell.
 ALAT       =     6.4767787678
  
  Lattice vectors:
  
 A1 = (   4.5797741868,   0.0000000000,   0.0000000000)
 A2 = (   2.2898870934,   3.9662007893,  -0.0000000000)
 A3 = (   2.2898870934,   1.3220669298,   3.7393699651)


Analysis of symmetry for initial positions (statically):
=====================================================================
 Subroutine PRICEL returns:
 Original cell was already a primitive cell.
 

 Routine SETGRP: Setting up the symmetry group for a 
 face centered cubic supercell.


 Subroutine GETGRP returns: Found 48 space group operations
 (whereof 48 operations were pure point group operations)
 out of a pool of 48 trial point group operations.


The static configuration has the point symmetry O_h .


Analysis of symmetry for dynamics (positions and initial velocities):
=====================================================================
 Subroutine PRICEL returns:
 Original cell was already a primitive cell.
 

 Routine SETGRP: Setting up the symmetry group for a 
 face centered cubic supercell.


 Subroutine GETGRP returns: Found 48 space group operations
 (whereof 48 operations were pure point group operations)
 out of a pool of 48 trial point group operations.


The dynamic configuration has the point symmetry O_h .


 Subroutine INISYM returns: Found 48 space group operations
 (whereof 48 operations are pure point group operations),
 and found     1 'primitive' translations

 
 

Automatic generation of k-mesh.
 generate k-points for:    9    9    9
Space group operators:
 irot       det(A)        alpha          n_x          n_y          n_z        tau_x        tau_y        tau_z
    1     1.000000     0.000000     1.000000     0.000000     0.000000     0.000000     0.000000     0.000000
    2    -1.000000     0.000000     1.000000     0.000000     0.000000     0.000000     0.000000     0.000000
    3     1.000000   120.000000    -0.816497    -0.471405    -0.333333     0.000000     0.000000     0.000000
    4    -1.000000   120.000000    -0.816497    -0.471405    -0.333333     0.000000     0.000000     0.000000
    5     1.000000   120.000000     0.816497     0.471405     0.333333     0.000000     0.000000     0.000000
    6    -1.000000   120.000000     0.816497     0.471405     0.333333     0.000000     0.000000     0.000000
    7     1.000000    90.000000    -0.707107    -0.408248     0.577350     0.000000     0.000000     0.000000
    8    -1.000000    90.000000    -0.707107    -0.408248     0.577350     0.000000     0.000000     0.000000
    9     1.000000   180.000000     1.000000     0.000000     0.000000     0.000000     0.000000     0.000000
   10    -1.000000   180.000000     1.000000     0.000000     0.000000     0.000000     0.000000     0.000000
   11     1.000000    90.000000     0.707107    -0.408248     0.577350     0.000000     0.000000     0.000000
   12    -1.000000    90.000000     0.707107    -0.408248     0.577350     0.000000     0.000000     0.000000
   13     1.000000   180.000000     0.707107     0.408248    -0.577350     0.000000     0.000000     0.000000
   14    -1.000000   180.000000     0.707107     0.408248    -0.577350     0.000000     0.000000     0.000000
   15     1.000000   120.000000     0.816497    -0.471405    -0.333333     0.000000     0.000000     0.000000
   16    -1.000000   120.000000     0.816497    -0.471405    -0.333333     0.000000     0.000000     0.000000
   17     1.000000   120.000000     0.000000    -0.942809     0.333333     0.000000     0.000000     0.000000
   18    -1.000000   120.000000     0.000000    -0.942809     0.333333     0.000000     0.000000     0.000000
   19     1.000000    90.000000     0.707107     0.408248    -0.577350     0.000000     0.000000     0.000000
   20    -1.000000    90.000000     0.707107     0.408248    -0.577350     0.000000     0.000000     0.000000
   21     1.000000    90.000000    -0.000000    -0.816497    -0.577350     0.000000     0.000000     0.000000
   22    -1.000000    90.000000    -0.000000    -0.816497    -0.577350     0.000000     0.000000     0.000000
   23     1.000000   180.000000     0.500000     0.866025     0.000000     0.000000     0.000000     0.000000
   24    -1.000000   180.000000     0.500000     0.866025     0.000000     0.000000     0.000000     0.000000
   25     1.000000   120.000000     0.000000     0.942809    -0.333333     0.000000     0.000000     0.000000
   26    -1.000000   120.000000     0.000000     0.942809    -0.333333     0.000000     0.000000     0.000000
   27     1.000000   120.000000    -0.000000     0.000000    -1.000000     0.000000     0.000000     0.000000
   28    -1.000000   120.000000    -0.000000     0.000000    -1.000000     0.000000     0.000000     0.000000
   29     1.000000   180.000000    -0.000000     0.816497     0.577350     0.000000     0.000000     0.000000
   30    -1.000000   180.000000    -0.000000     0.816497     0.577350     0.000000     0.000000     0.000000
   31     1.000000    90.000000    -0.707107     0.408248    -0.577350     0.000000     0.000000     0.000000
   32    -1.000000    90.000000    -0.707107     0.408248    -0.577350     0.000000     0.000000     0.000000
   33     1.000000   180.000000     0.500000     0.288675     0.816497     0.000000     0.000000     0.000000
   34    -1.000000   180.000000     0.500000     0.288675     0.816497     0.000000     0.000000     0.000000
   35     1.000000    90.000000    -0.000000     0.816497     0.577350     0.000000     0.000000     0.000000
   36    -1.000000    90.000000    -0.000000     0.816497     0.577350     0.000000     0.000000     0.000000
   37     1.000000   120.000000    -0.816497     0.471405     0.333333     0.000000     0.000000     0.000000
   38    -1.000000   120.000000    -0.816497     0.471405     0.333333     0.000000     0.000000     0.000000
   39     1.000000   180.000000    -0.707107     0.408248    -0.577350     0.000000     0.000000     0.000000
   40    -1.000000   180.000000    -0.707107     0.408248    -0.577350     0.000000     0.000000     0.000000
   41     1.000000   120.000000    -0.000000    -0.000000     1.000000     0.000000     0.000000     0.000000
   42    -1.000000   120.000000    -0.000000    -0.000000     1.000000     0.000000     0.000000     0.000000
   43     1.000000   180.000000     0.000000     0.577350    -0.816497     0.000000     0.000000     0.000000
   44    -1.000000   180.000000     0.000000     0.577350    -0.816497     0.000000     0.000000     0.000000
   45     1.000000   180.000000    -0.500000     0.866025     0.000000     0.000000     0.000000     0.000000
   46    -1.000000   180.000000    -0.500000     0.866025     0.000000     0.000000     0.000000     0.000000
   47     1.000000   180.000000    -0.500000     0.288675     0.816497     0.000000     0.000000     0.000000
   48    -1.000000   180.000000    -0.500000     0.288675     0.816497     0.000000     0.000000     0.000000
 
 Subroutine IBZKPT returns following result:
 ===========================================
 
 Found     35 irreducible k-points:
 
 Following reciprocal coordinates:
            Coordinates               Weight
  0.000000  0.000000  0.000000      1.000000
  0.111111 -0.000000 -0.000000      8.000000
  0.222222  0.000000  0.000000      8.000000
  0.333333 -0.000000 -0.000000      8.000000
  0.444444  0.000000  0.000000      8.000000
  0.111111  0.111111 -0.000000      6.000000
  0.222222  0.111111  0.000000     24.000000
  0.333333  0.111111 -0.000000     24.000000
  0.444444  0.111111  0.000000     24.000000
 -0.444444  0.111111 -0.000000     24.000000
 -0.333333  0.111111  0.000000     24.000000
 -0.222222  0.111111 -0.000000     24.000000
 -0.111111  0.111111 -0.000000     12.000000
  0.222222  0.222222 -0.000000      6.000000
  0.333333  0.222222 -0.000000     24.000000
  0.444444  0.222222 -0.000000     24.000000
 -0.444444  0.222222 -0.000000     24.000000
 -0.333333  0.222222 -0.000000     24.000000
 -0.222222  0.222222 -0.000000     12.000000
  0.333333  0.333333 -0.000000      6.000000
  0.444444  0.333333  0.000000     24.000000
 -0.444444  0.333333 -0.000000     24.000000
 -0.333333  0.333333  0.000000     12.000000
  0.444444  0.444444 -0.000000      6.000000
 -0.444444  0.444444 -0.000000     12.000000
  0.333333  0.222222  0.111111     24.000000
  0.444444  0.222222  0.111111     48.000000
 -0.444444  0.222222  0.111111     48.000000
  0.444444  0.333333  0.111111     24.000000
 -0.444444  0.333333  0.111111     48.000000
 -0.333333  0.333333  0.111111     48.000000
 -0.222222  0.333333  0.111111     24.000000
 -0.444444  0.444444  0.111111     24.000000
 -0.333333  0.444444  0.111111     24.000000
 -0.333333  0.444444  0.222222     24.000000
 
 Following cartesian coordinates:
            Coordinates               Weight
  0.000000  0.000000  0.000000      1.000000
  0.024746 -0.014287 -0.010103      8.000000
  0.049493 -0.028575 -0.020205      8.000000
  0.074239 -0.042862 -0.030308      8.000000
  0.098986 -0.057150 -0.040411      8.000000
  0.024746  0.014287 -0.020205      6.000000
  0.049493 -0.000000 -0.030308     24.000000
  0.074239 -0.014287 -0.040411     24.000000
  0.098986 -0.028575 -0.050514     24.000000
 -0.098986  0.085724  0.030308     24.000000
 -0.074239  0.071437  0.020205     24.000000
 -0.049493  0.057150  0.010103     24.000000
 -0.024746  0.042862  0.000000     12.000000
  0.049493  0.028575 -0.040411      6.000000
  0.074239  0.014287 -0.050514     24.000000
  0.098986 -0.000000 -0.060616     24.000000
 -0.098986  0.114299  0.020205     24.000000
 -0.074239  0.100012  0.010103     24.000000
 -0.049493  0.085724  0.000000     12.000000
  0.074239  0.042862 -0.060616      6.000000
  0.098986  0.028575 -0.070719     24.000000
 -0.098986  0.142874  0.010103     24.000000
 -0.074239  0.128587  0.000000     12.000000
  0.098986  0.057150 -0.080822      6.000000
 -0.098986  0.171449  0.000000     12.000000
  0.074239  0.014287 -0.020205     24.000000
  0.098986  0.000000 -0.030308     48.000000
 -0.098986  0.114299  0.050514     48.000000
  0.098986  0.028575 -0.040411     24.000000
 -0.098986  0.142874  0.040411     48.000000
 -0.074239  0.128587  0.030308     48.000000
 -0.049493  0.114299  0.020205     24.000000
 -0.098986  0.171449  0.030308     24.000000
 -0.074239  0.157161  0.020205     24.000000
 -0.074239  0.157161  0.050514     24.000000
 


--------------------------------------------------------------------------------------------------------




 Dimension of arrays:
   k-points           NKPTS =     35   k-points in BZ     NKDIM =     35   number of bands    NBANDS=     13
   number of dos      NEDOS =    301   number of ions     NIONS =      1
   non local maximal  LDIM  =      6   non local SUM 2l+1 LMDIM =     18
   total plane-waves  NPLWV =  64000
   max r-space proj   IRMAX =      1   max aug-charges    IRDMAX= 452800
   dimension x,y,z NGX =    40 NGY =   40 NGZ =   40
   dimension x,y,z NGXF=    80 NGYF=   80 NGZF=   80
   support grid    NGXF=   160 NGYF=  160 NGZF=  160
   ions per type =               1
   NGX,Y,Z   is equivalent  to a cutoff of  14.52, 14.52, 14.52 a.u.
   NGXF,Y,Z  is equivalent  to a cutoff of  29.04, 29.04, 29.04 a.u.

 SYSTEM =  Og_FCC                                  
 POSCAR =  Og_FCC                                  

 Startparameter for this run:
   NWRITE =      2    write-flag & timer
   PREC   = accura    normal or accurate (medium, high low for compatibility)
   ISTART =      0    job   : 0-new  1-cont  2-samecut
   ICHARG =      2    charge: 1-file 2-atom 10-const
   ISPIN  =      1    spin polarized calculation?
   LNONCOLLINEAR =      F non collinear calculations
   LSORBIT =      F    spin-orbit coupling
   INIWAV =      1    electr: 0-lowe 1-rand  2-diag
   LASPH  =      F    aspherical Exc in radial PAW
   METAGGA=      F    non-selfconsistent MetaGGA calc.

 Electronic Relaxation 1
   ENCUT  =  600.0 eV  44.10 Ry    6.64 a.u.   9.15  9.15  9.15*2*pi/ulx,y,z
   ENINI  =  600.0     initial cutoff
   ENAUG  =  361.0 eV  augmentation charge cutoff
   NELM   =    100;   NELMIN=  5; NELMDL= -5     # of ELM steps 
   EDIFF  = 0.1E-06   stopping-criterion for ELM
   LREAL  =      F    real-space projection
   NLSPLINE    = F    spline interpolate recip. space projectors
   LCOMPAT=      F    compatible to vasp.4.4
   GGA_COMPAT  = F    GGA compatible to vasp.4.4-vasp.4.6
   LMAXPAW     = -100 max onsite density
   LMAXMIX     =    2 max onsite mixed and CHGCAR
   VOSKOWN=      0    Vosko Wilk Nusair interpolation
   ROPT   =    0.00000
 Ionic relaxation
   EDIFFG = 0.1E-04   stopping-criterion for IOM
   NSW    =      1    number of steps for IOM
   NBLOCK =      1;   KBLOCK =      1    inner block; outer block 
   IBRION =     -1    ionic relax: 0-MD 1-quasi-New 2-CG
   NFREE  =      5    steps in history (QN), initial steepest desc. (CG)
   ISIF   =      7    stress and relaxation
   IWAVPR =     10    prediction:  0-non 1-charg 2-wave 3-comb
   ISYM   =      2    0-nonsym 1-usesym 2-fastsym
   LCORR  =      T    Harris-Foulkes like correction to forces

   POTIM  = 0.1000    time-step for ionic-motion
   TEIN   =    0.0    initial temperature
   TEBEG  =    0.0;   TEEND  =   0.0 temperature during run
   SMASS  =  -3.00    Nose mass-parameter (am)
   estimated Nose-frequenzy (Omega)   =  0.10E-29 period in steps =****** mass=  -0.479E-27a.u.
   SCALEE = 1.0000    scale energy and forces
   NPACO  =    256;   APACO  = 16.0  distance and # of slots for P.C.
   PSTRESS=    0.0 pullay stress

  Mass of Ions in am
   POMASS =   0.01
  Ionic Valenz
   ZVAL   =  18.00
  Atomic Wigner-Seitz radii
   RWIGS  =  -1.00
  virtual crystal weights 
   VCA    =   1.00
   NELECT =      18.0000    total number of electrons
   NUPDOWN=      -1.0000    fix difference up-down

 DOS related values:
   EMIN   =  10.00;   EMAX   =-10.00  energy-range for DOS
   EFERMI =   0.00
   ISMEAR =     1;   SIGMA  =   0.10  broadening in eV -4-tet -1-fermi 0-gaus

 Electronic relaxation 2 (details)
   IALGO  =     68    algorithm
   LDIAG  =      T    sub-space diagonalisation (order eigenvalues)
   LSUBROT=      F    optimize rotation matrix (better conditioning)
   TURBO    =      0    0=normal 1=particle mesh
   IRESTART =      0    0=no restart 2=restart with 2 vectors
   NREBOOT  =      0    no. of reboots
   NMIN     =      0    reboot dimension
   EREF     =   0.00    reference energy to select bands
   IMIX   =      4    mixing-type and parameters
     AMIX     =   0.40;   BMIX     =  1.00
     AMIX_MAG =   1.60;   BMIX_MAG =  1.00
     AMIN     =   0.10
     WC   =   100.;   INIMIX=   1;  MIXPRE=   1;  MAXMIX=  50

 Intra band minimization:
   WEIMIN = 0.0000     energy-eigenvalue tresh-hold
   EBREAK =  0.19E-08  absolut break condition
   DEPER  =   0.30     relativ break condition  

   TIME   =   0.40     timestep for ELM

  volume/ion in A,a.u.               =      67.92       458.37
  Fermi-wavevector in a.u.,A,eV,Ry     =   1.051542  1.987126 15.044512  1.105740
  Thomas-Fermi vector in A             =   2.186589
 
 Write flags
   LWAVE        =      F    write WAVECAR
   LDOWNSAMPLE  =      F    k-point downsampling of WAVECAR
   LCHARG       =      F    write CHGCAR
   LVTOT        =      F    write LOCPOT, total local potential
   LVHAR        =      F    write LOCPOT, Hartree potential only
   LELF         =      F    write electronic localiz. function (ELF)
   LORBIT       =      0    0 simple, 1 ext, 2 COOP (PROOUT), +10 PAW based schemes


 Dipole corrections
   LMONO  =      F    monopole corrections only (constant potential shift)
   LDIPOL =      F    correct potential (dipole corrections)
   IDIPOL =      0    1-x, 2-y, 3-z, 4-all directions 
   EPSILON=  1.0000000 bulk dielectric constant

 Exchange correlation treatment:
   GGA     =    PS    GGA type
   LEXCH   =    14    internal setting for exchange type
   VOSKOWN=      0    Vosko Wilk Nusair interpolation
   LHFCALC =     F    Hartree Fock is set to
   LHFONE  =     F    Hartree Fock one center treatment
   AEXX    =    0.0000 exact exchange contribution

 Linear response parameters
   LEPSILON=     F    determine dielectric tensor
   LRPA    =     F    only Hartree local field effects (RPA)
   LNABLA  =     F    use nabla operator in PAW spheres
   LVEL    =     F    velocity operator in full k-point grid
   LINTERFAST=   F  fast interpolation
   KINTER  =     0    interpolate to denser k-point grid
   CSHIFT  =0.1000    complex shift for real part using Kramers Kronig
   OMEGAMAX=  -1.0    maximum frequency
   DEG_THRESHOLD= 0.2000000E-02 threshold for treating states as degnerate
   RTIME   =   -0.100 relaxation time in fs
  (WPLASMAI=    0.000 imaginary part of plasma frequency in eV, 0.658/RTIME)
   DFIELD  = 0.0000000 0.0000000 0.0000000 field for delta impulse in time
 
 Orbital magnetization related:
   ORBITALMAG=     F  switch on orbital magnetization
   LCHIMAG   =     F  perturbation theory with respect to B field
   DQ        =  0.001000  dq finite difference perturbation B field
   LLRAUG    =     F  two centre corrections for induced B field



--------------------------------------------------------------------------------------------------------


 Static calculation
 charge density and potential will be updated during run
 non-spin polarized calculation
 RMM-DIIS sequential band-by-band and
  variant of blocked Davidson during initial phase
 perform sub-space diagonalisation
    before iterative eigenvector-optimisation
 modified Broyden-mixing scheme, WC =      100.0
 initial mixing is a Kerker type mixing with AMIX =  0.4000 and BMIX =      1.0000
 Hartree-type preconditioning will be used
 using additional bands            4
 reciprocal scheme for non local part
 use partial core corrections
 calculate Harris-corrections to forces 
   (improved forces if not selfconsistent)
 use gradient corrections 
 use of overlap-Matrix (Vanderbilt PP)
 Methfessel and Paxton  Order N= 1 SIGMA  =   0.10


--------------------------------------------------------------------------------------------------------


  energy-cutoff  :      600.00
  volume of cell :       67.92
      direct lattice vectors                 reciprocal lattice vectors
     4.579774187  0.000000000  0.000000000     0.218351377 -0.126065226 -0.089141576
     2.289887093  3.966200789 -0.000000000     0.000000000  0.252130453 -0.089141576
     2.289887093  1.322066930  3.739369965    -0.000000000  0.000000000  0.267424729

  length of vectors
     4.579774187  4.579774187  4.579774187     0.267424729  0.267424729  0.267424729


 
 k-points in units of 2pi/SCALE and weight: read from INCAR                         
   0.00000000  0.00000000  0.00000000       0.001
   0.02474649 -0.01428739 -0.01010271       0.011
   0.04949298 -0.02857478 -0.02020542       0.011
   0.07423947 -0.04286218 -0.03030814       0.011
   0.09898596 -0.05714957 -0.04041085       0.011
   0.02474649  0.01428739 -0.02020542       0.008
   0.04949298 -0.00000000 -0.03030814       0.033
   0.07423947 -0.01428739 -0.04041085       0.033
   0.09898596 -0.02857478 -0.05051356       0.033
  -0.09898596  0.08572435  0.03030814       0.033
  -0.07423947  0.07143696  0.02020542       0.033
  -0.04949298  0.05714957  0.01010271       0.033
  -0.02474649  0.04286218  0.00000000       0.016
   0.04949298  0.02857478 -0.04041085       0.008
   0.07423947  0.01428739 -0.05051356       0.033
   0.09898596 -0.00000000 -0.06061627       0.033
  -0.09898596  0.11429914  0.02020542       0.033
  -0.07423947  0.10001175  0.01010271       0.033
  -0.04949298  0.08572435  0.00000000       0.016
   0.07423947  0.04286218 -0.06061627       0.008
   0.09898596  0.02857478 -0.07071898       0.033
  -0.09898596  0.14287392  0.01010271       0.033
  -0.07423947  0.12858653  0.00000000       0.016
   0.09898596  0.05714957 -0.08082170       0.008
  -0.09898596  0.17144871  0.00000000       0.016
   0.07423947  0.01428739 -0.02020542       0.033
   0.09898596  0.00000000 -0.03030814       0.066
  -0.09898596  0.11429914  0.05051356       0.066
   0.09898596  0.02857478 -0.04041085       0.033
  -0.09898596  0.14287392  0.04041085       0.066
  -0.07423947  0.12858653  0.03030814       0.066
  -0.04949298  0.11429914  0.02020542       0.033
  -0.09898596  0.17144871  0.03030814       0.033
  -0.07423947  0.15716132  0.02020542       0.033
  -0.07423947  0.15716132  0.05051356       0.033
 
 k-points in reciprocal lattice and weights: read from INCAR                         
   0.00000000  0.00000000  0.00000000       0.001
   0.11111111 -0.00000000 -0.00000000       0.011
   0.22222222  0.00000000  0.00000000       0.011
   0.33333333 -0.00000000 -0.00000000       0.011
   0.44444444  0.00000000  0.00000000       0.011
   0.11111111  0.11111111 -0.00000000       0.008
   0.22222222  0.11111111  0.00000000       0.033
   0.33333333  0.11111111 -0.00000000       0.033
   0.44444444  0.11111111  0.00000000       0.033
  -0.44444444  0.11111111 -0.00000000       0.033
  -0.33333333  0.11111111  0.00000000       0.033
  -0.22222222  0.11111111 -0.00000000       0.033
  -0.11111111  0.11111111 -0.00000000       0.016
   0.22222222  0.22222222 -0.00000000       0.008
   0.33333333  0.22222222 -0.00000000       0.033
   0.44444444  0.22222222 -0.00000000       0.033
  -0.44444444  0.22222222 -0.00000000       0.033
  -0.33333333  0.22222222 -0.00000000       0.033
  -0.22222222  0.22222222 -0.00000000       0.016
   0.33333333  0.33333333 -0.00000000       0.008
   0.44444444  0.33333333  0.00000000       0.033
  -0.44444444  0.33333333 -0.00000000       0.033
  -0.33333333  0.33333333  0.00000000       0.016
   0.44444444  0.44444444 -0.00000000       0.008
  -0.44444444  0.44444444 -0.00000000       0.016
   0.33333333  0.22222222  0.11111111       0.033
   0.44444444  0.22222222  0.11111111       0.066
  -0.44444444  0.22222222  0.11111111       0.066
   0.44444444  0.33333333  0.11111111       0.033
  -0.44444444  0.33333333  0.11111111       0.066
  -0.33333333  0.33333333  0.11111111       0.066
  -0.22222222  0.33333333  0.11111111       0.033
  -0.44444444  0.44444444  0.11111111       0.033
  -0.33333333  0.44444444  0.11111111       0.033
  -0.33333333  0.44444444  0.22222222       0.033
 
 position of ions in fractional coordinates (direct lattice) 
   0.00000000  0.00000000  0.00000000
 
 position of ions in cartesian coordinates  (Angst):
   0.00000000  0.00000000  0.00000000
 


--------------------------------------------------------------------------------------------------------


 k-point  1 :   0.0000 0.0000 0.0000  plane waves:    2229
 k-point  2 :   0.1111-0.0000-0.0000  plane waves:    2253
 k-point  3 :   0.2222 0.0000 0.0000  plane waves:    2256
 k-point  4 :   0.3333-0.0000-0.0000  plane waves:    2247
 k-point  5 :   0.4444 0.0000 0.0000  plane waves:    2280
 k-point  6 :   0.1111 0.1111-0.0000  plane waves:    2253
 k-point  7 :   0.2222 0.1111 0.0000  plane waves:    2254
 k-point  8 :   0.3333 0.1111-0.0000  plane waves:    2267
 k-point  9 :   0.4444 0.1111 0.0000  plane waves:    2267
 k-point 10 :  -0.4444 0.1111-0.0000  plane waves:    2272
 k-point 11 :  -0.3333 0.1111 0.0000  plane waves:    2259
 k-point 12 :  -0.2222 0.1111-0.0000  plane waves:    2254
 k-point 13 :  -0.1111 0.1111-0.0000  plane waves:    2253
 k-point 14 :   0.2222 0.2222-0.0000  plane waves:    2261
 k-point 15 :   0.3333 0.2222-0.0000  plane waves:    2268
 k-point 16 :   0.4444 0.2222-0.0000  plane waves:    2277
 k-point 17 :  -0.4444 0.2222-0.0000  plane waves:    2269
 k-point 18 :  -0.3333 0.2222-0.0000  plane waves:    2276
 k-point 19 :  -0.2222 0.2222-0.0000  plane waves:    2269
 k-point 20 :   0.3333 0.3333-0.0000  plane waves:    2269
 k-point 21 :   0.4444 0.3333 0.0000  plane waves:    2273
 k-point 22 :  -0.4444 0.3333-0.0000  plane waves:    2274
 k-point 23 :  -0.3333 0.3333 0.0000  plane waves:    2285
 k-point 24 :   0.4444 0.4444-0.0000  plane waves:    2257
 k-point 25 :  -0.4444 0.4444-0.0000  plane waves:    2270
 k-point 26 :   0.3333 0.2222 0.1111  plane waves:    2264
 k-point 27 :   0.4444 0.2222 0.1111  plane waves:    2270
 k-point 28 :  -0.4444 0.2222 0.1111  plane waves:    2270
 k-point 29 :   0.4444 0.3333 0.1111  plane waves:    2271
 k-point 30 :  -0.4444 0.3333 0.1111  plane waves:    2266
 k-point 31 :  -0.3333 0.3333 0.1111  plane waves:    2264
 k-point 32 :  -0.2222 0.3333 0.1111  plane waves:    2267
 k-point 33 :  -0.4444 0.4444 0.1111  plane waves:    2263
 k-point 34 :  -0.3333 0.4444 0.1111  plane waves:    2263
 k-point 35 :  -0.3333 0.4444 0.2222  plane waves:    2263

 maximum and minimum number of plane-waves per node :       577      550

 maximum number of plane-waves:      2285
 maximum index in each direction: 
   IXMAX=    9   IYMAX=    9   IZMAX=    9
   IXMIN=   -9   IYMIN=   -9   IZMIN=   -9


 parallel 3D FFT for wavefunctions:
    minimum data exchange during FFTs selected (reduces bandwidth)
 parallel 3D FFT for charge:
    minimum data exchange during FFTs selected (reduces bandwidth)


 total amount of memory used by VASP MPI-rank0    63461. kBytes
=======================================================================

   base      :      30000. kBytes
   nonl-proj :       2897. kBytes
   fftplans  :      19355. kBytes
   grid      :       6892. kBytes
   one-center:         15. kBytes
   wavefun   :       4302. kBytes
 
     INWAV:  cpu time    0.0000: real time    0.0000
 Broyden mixing: mesh for mixing (old mesh)
   NGX = 19   NGY = 19   NGZ = 19
  (NGX  = 80   NGY  = 80   NGZ  = 80)
  gives a total of   6859 points

 initial charge density was supplied:
 charge density of overlapping atoms calculated
 number of electron      18.0000000 magnetization 
 keeping initial charge density in first step


--------------------------------------------------------------------------------------------------------


 Maximum index for augmentation-charges       109731 (set IRDMAX)


--------------------------------------------------------------------------------------------------------


 First call to EWALD:  gamma=   0.434
 Maximum number of real-space cells 3x 3x 3
 Maximum number of reciprocal cells 3x 3x 3

    FEWALD:  cpu time    0.0019: real time    0.0019


--------------------------------------- Iteration      1(   1)  ---------------------------------------


    POTLOK:  cpu time    0.0826: real time    0.0832
    SETDIJ:  cpu time    0.1124: real time    0.1124
     EDDAV:  cpu time    0.1647: real time    0.1676
       DOS:  cpu time    0.0006: real time    0.0006
    --------------------------------------------
      LOOP:  cpu time    0.3604: real time    0.3638

 eigenvalue-minimisations  :   918
 total energy-change (2. order) : 0.3031057E+03  (-0.9388618E+03)
 number of electron      18.0000000 magnetization 
 augmentation part       18.0000000 magnetization 

 Free energy of the ion-electron system (eV)
  ---------------------------------------------------
  alpha Z        PSCENC =        56.17027567
  Ewald energy   TEWEN  =     -1651.34684189
  -Hartree energ DENC   =      -720.46886711
  -exchange      EXHF   =         0.00000000
  -V(xc)+E(xc)   XCENC  =       -67.27187671
  PAW double counting   =      2266.27872487    -2184.08858500
  entropy T*S    EENTRO =        -0.00025831
  eigenvalues    EBANDS =       -38.18431971
  atomic energy  EATOM  =      2642.01744135
  Solvation  Ediel_sol  =         0.00000000
  ---------------------------------------------------
  free energy    TOTEN  =       303.10569316 eV

  energy without entropy =      303.10595148  energy(sigma->0) =      303.10577927


--------------------------------------------------------------------------------------------------------




--------------------------------------- Iteration      1(   2)  ---------------------------------------


     EDDAV:  cpu time    0.1986: real time    0.1992
       DOS:  cpu time    0.0007: real time    0.0007
    --------------------------------------------
      LOOP:  cpu time    0.1993: real time    0.1999

 eigenvalue-minimisations  :  1179
 total energy-change (2. order) :-0.2926182E+03  (-0.2847976E+03)
 number of electron      18.0000000 magnetization 
 augmentation part       18.0000000 magnetization 

 Free energy of the ion-electron system (eV)
  ---------------------------------------------------
  alpha Z        PSCENC =        56.17027567
  Ewald energy   TEWEN  =     -1651.34684189
  -Hartree energ DENC   =      -720.46886711
  -exchange      EXHF   =         0.00000000
  -V(xc)+E(xc)   XCENC  =       -67.27187671
  PAW double counting   =      2266.27872487    -2184.08858500
  entropy T*S    EENTRO =         0.00006009
  eigenvalues    EBANDS =      -330.80288777
  atomic energy  EATOM  =      2642.01744135
  Solvation  Ediel_sol  =         0.00000000
  ---------------------------------------------------
  free energy    TOTEN  =        10.48744351 eV

  energy without entropy =       10.48738342  energy(sigma->0) =       10.48742348


--------------------------------------------------------------------------------------------------------




--------------------------------------- Iteration      1(   3)  ---------------------------------------


     EDDAV:  cpu time    0.1808: real time    0.1809
       DOS:  cpu time    0.0005: real time    0.0005
    --------------------------------------------
      LOOP:  cpu time    0.1812: real time    0.1813

 eigenvalue-minimisations  :  1105
 total energy-change (2. order) :-0.1040749E+02  (-0.1039344E+02)
 number of electron      18.0000000 magnetization 
 augmentation part       18.0000000 magnetization 

 Free energy of the ion-electron system (eV)
  ---------------------------------------------------
  alpha Z        PSCENC =        56.17027567
  Ewald energy   TEWEN  =     -1651.34684189
  -Hartree energ DENC   =      -720.46886711
  -exchange      EXHF   =         0.00000000
  -V(xc)+E(xc)   XCENC  =       -67.27187671
  PAW double counting   =      2266.27872487    -2184.08858500
  entropy T*S    EENTRO =         0.00074092
  eigenvalues    EBANDS =      -341.21106324
  atomic energy  EATOM  =      2642.01744135
  Solvation  Ediel_sol  =         0.00000000
  ---------------------------------------------------
  free energy    TOTEN  =         0.07994886 eV

  energy without entropy =        0.07920794  energy(sigma->0) =        0.07970189


--------------------------------------------------------------------------------------------------------




--------------------------------------- Iteration      1(   4)  ---------------------------------------


     EDDAV:  cpu time    0.2269: real time    0.2272
       DOS:  cpu time    0.0005: real time    0.0005
    --------------------------------------------
      LOOP:  cpu time    0.2275: real time    0.2277

 eigenvalue-minimisations  :  1308
 total energy-change (2. order) :-0.1861556E+00  (-0.1861246E+00)
 number of electron      18.0000000 magnetization 
 augmentation part       18.0000000 magnetization 

 Free energy of the ion-electron system (eV)
  ---------------------------------------------------
  alpha Z        PSCENC =        56.17027567
  Ewald energy   TEWEN  =     -1651.34684189
  -Hartree energ DENC   =      -720.46886711
  -exchange      EXHF   =         0.00000000
  -V(xc)+E(xc)   XCENC  =       -67.27187671
  PAW double counting   =      2266.27872487    -2184.08858500
  entropy T*S    EENTRO =         0.00072674
  eigenvalues    EBANDS =      -341.39720467
  atomic energy  EATOM  =      2642.01744135
  Solvation  Ediel_sol  =         0.00000000
  ---------------------------------------------------
  free energy    TOTEN  =        -0.10620675 eV

  energy without entropy =       -0.10693349  energy(sigma->0) =       -0.10644899


--------------------------------------------------------------------------------------------------------




--------------------------------------- Iteration      1(   5)  ---------------------------------------


     EDDAV:  cpu time    0.2314: real time    0.2314
       DOS:  cpu time    0.0005: real time    0.0005
    CHARGE:  cpu time    0.1270: real time    0.1279
    MIXING:  cpu time    0.0025: real time    0.0025
    --------------------------------------------
      LOOP:  cpu time    0.3615: real time    0.3624

 eigenvalue-minimisations  :  1217
 total energy-change (2. order) :-0.6315273E-02  (-0.6314788E-02)
 number of electron      18.0000000 magnetization 
 augmentation part        2.9930811 magnetization 

 Broyden mixing:
  rms(total) = 0.19376E-01    rms(broyden)= 0.18537E-01
  rms(prec ) = 0.47945E-01
  weight for this iteration     100.00

 Free energy of the ion-electron system (eV)
  ---------------------------------------------------
  alpha Z        PSCENC =        56.17027567
  Ewald energy   TEWEN  =     -1651.34684189
  -Hartree energ DENC   =      -720.46886711
  -exchange      EXHF   =         0.00000000
  -V(xc)+E(xc)   XCENC  =       -67.27187671
  PAW double counting   =      2266.27872487    -2184.08858500
  entropy T*S    EENTRO =         0.00073099
  eigenvalues    EBANDS =      -341.40352419
  atomic energy  EATOM  =      2642.01744135
  Solvation  Ediel_sol  =         0.00000000
  ---------------------------------------------------
  free energy    TOTEN  =        -0.11252202 eV

  energy without entropy =       -0.11325301  energy(sigma->0) =       -0.11276568


--------------------------------------------------------------------------------------------------------




--------------------------------------- Iteration      1(   6)  ---------------------------------------


    POTLOK:  cpu time    0.0621: real time    0.0622
    SETDIJ:  cpu time    0.0949: real time    0.0949
    EDDIAG:  cpu time    0.0424: real time    0.0424
  RMM-DIIS:  cpu time    0.1718: real time    0.1718
    ORTHCH:  cpu time    0.0010: real time    0.0010
       DOS:  cpu time    0.0004: real time    0.0004
    CHARGE:  cpu time    0.1199: real time    0.1199
    MIXING:  cpu time    0.0024: real time    0.0024
    --------------------------------------------
      LOOP:  cpu time    0.4950: real time    0.4951

 eigenvalue-minimisations  :  1058
 total energy-change (2. order) :-0.2783317E-03  (-0.3547252E-03)
 number of electron      18.0000000 magnetization 
 augmentation part        2.9918385 magnetization 

 Broyden mixing:
  rms(total) = 0.10796E-01    rms(broyden)= 0.10738E-01
  rms(prec ) = 0.28402E-01
  weight for this iteration     100.00

 eigenvalues of (default mixing * dielectric matrix)
  average eigenvalue GAMMA=   2.2794
  2.2794

 Free energy of the ion-electron system (eV)
  ---------------------------------------------------
  alpha Z        PSCENC =        56.17027567
  Ewald energy   TEWEN  =     -1651.34684189
  -Hartree energ DENC   =      -719.91065312
  -exchange      EXHF   =         0.00000000
  -V(xc)+E(xc)   XCENC  =       -67.30324918
  PAW double counting   =      2259.52300601    -2177.28076355
  entropy T*S    EENTRO =         0.00073289
  eigenvalues    EBANDS =      -341.98274853
  atomic energy  EATOM  =      2642.01744135
  Solvation  Ediel_sol  =         0.00000000
  ---------------------------------------------------
  free energy    TOTEN  =        -0.11280035 eV

  energy without entropy =       -0.11353324  energy(sigma->0) =       -0.11304465


--------------------------------------------------------------------------------------------------------




--------------------------------------- Iteration      1(   7)  ---------------------------------------


    POTLOK:  cpu time    0.0621: real time    0.0623
    SETDIJ:  cpu time    0.0933: real time    0.0933
    EDDIAG:  cpu time    0.0432: real time    0.0432
  RMM-DIIS:  cpu time    0.2010: real time    0.2010
    ORTHCH:  cpu time    0.0011: real time    0.0011
       DOS:  cpu time    0.0004: real time    0.0004
    CHARGE:  cpu time    0.1361: real time    0.1361
    MIXING:  cpu time    0.0037: real time    0.0037
    --------------------------------------------
      LOOP:  cpu time    0.5408: real time    0.5411

 eigenvalue-minimisations  :  1069
 total energy-change (2. order) :-0.2881459E-03  (-0.1724929E-03)
 number of electron      18.0000000 magnetization 
 augmentation part        2.9907139 magnetization 

 Broyden mixing:
  rms(total) = 0.18367E-02    rms(broyden)= 0.18235E-02
  rms(prec ) = 0.39619E-02
  weight for this iteration     100.00

 eigenvalues of (default mixing * dielectric matrix)
  average eigenvalue GAMMA=   2.3726
  1.9459  2.7993

 Free energy of the ion-electron system (eV)
  ---------------------------------------------------
  alpha Z        PSCENC =        56.17027567
  Ewald energy   TEWEN  =     -1651.34684189
  -Hartree energ DENC   =      -719.13399308
  -exchange      EXHF   =         0.00000000
  -V(xc)+E(xc)   XCENC  =       -67.34520624
  PAW double counting   =      2251.80389034    -2169.51839661
  entropy T*S    EENTRO =         0.00073512
  eigenvalues    EBANDS =      -342.76099315
  atomic energy  EATOM  =      2642.01744135
  Solvation  Ediel_sol  =         0.00000000
  ---------------------------------------------------
  free energy    TOTEN  =        -0.11308850 eV

  energy without entropy =       -0.11382361  energy(sigma->0) =       -0.11333354


--------------------------------------------------------------------------------------------------------




--------------------------------------- Iteration      1(   8)  ---------------------------------------


    POTLOK:  cpu time    0.0628: real time    0.0630
    SETDIJ:  cpu time    0.0942: real time    0.0942
    EDDIAG:  cpu time    0.0432: real time    0.0432
  RMM-DIIS:  cpu time    0.1788: real time    0.1787
    ORTHCH:  cpu time    0.0010: real time    0.0010
       DOS:  cpu time    0.0007: real time    0.0008
    CHARGE:  cpu time    0.1222: real time    0.1222
    MIXING:  cpu time    0.0029: real time    0.0029
    --------------------------------------------
      LOOP:  cpu time    0.5059: real time    0.5061

 eigenvalue-minimisations  :  1093
 total energy-change (2. order) :-0.5223647E-04  (-0.1929079E-04)
 number of electron      18.0000000 magnetization 
 augmentation part        2.9902118 magnetization 

 Broyden mixing:
  rms(total) = 0.73632E-03    rms(broyden)= 0.73501E-03
  rms(prec ) = 0.14447E-02
  weight for this iteration     100.00

 eigenvalues of (default mixing * dielectric matrix)
  average eigenvalue GAMMA=   1.9411
  2.8931  2.2467  0.6837

 Free energy of the ion-electron system (eV)
  ---------------------------------------------------
  alpha Z        PSCENC =        56.17027567
  Ewald energy   TEWEN  =     -1651.34684189
  -Hartree energ DENC   =      -719.11727839
  -exchange      EXHF   =         0.00000000
  -V(xc)+E(xc)   XCENC  =       -67.34538536
  PAW double counting   =      2253.76851648    -2171.52190170
  entropy T*S    EENTRO =         0.00073437
  eigenvalues    EBANDS =      -342.73870126
  atomic energy  EATOM  =      2642.01744135
  Solvation  Ediel_sol  =         0.00000000
  ---------------------------------------------------
  free energy    TOTEN  =        -0.11314073 eV

  energy without entropy =       -0.11387510  energy(sigma->0) =       -0.11338552


--------------------------------------------------------------------------------------------------------




--------------------------------------- Iteration      1(   9)  ---------------------------------------


    POTLOK:  cpu time    0.0637: real time    0.0638
    SETDIJ:  cpu time    0.0978: real time    0.0978
    EDDIAG:  cpu time    0.0439: real time    0.0439
  RMM-DIIS:  cpu time    0.2223: real time    0.2223
    ORTHCH:  cpu time    0.0011: real time    0.0011
       DOS:  cpu time    0.0004: real time    0.0004
    CHARGE:  cpu time    0.1331: real time    0.1331
    MIXING:  cpu time    0.0033: real time    0.0033
    --------------------------------------------
      LOOP:  cpu time    0.5657: real time    0.5657

 eigenvalue-minimisations  :  1268
 total energy-change (2. order) :-0.6639178E-05  (-0.3999422E-05)
 number of electron      18.0000000 magnetization 
 augmentation part        2.9901980 magnetization 

 Broyden mixing:
  rms(total) = 0.45649E-03    rms(broyden)= 0.45639E-03
  rms(prec ) = 0.93985E-03
  weight for this iteration     100.00

 eigenvalues of (default mixing * dielectric matrix)
  average eigenvalue GAMMA=   2.0622
  3.2564  2.4539  0.9592  1.5794

 Free energy of the ion-electron system (eV)
  ---------------------------------------------------
  alpha Z        PSCENC =        56.17027567
  Ewald energy   TEWEN  =     -1651.34684189
  -Hartree energ DENC   =      -719.10760403
  -exchange      EXHF   =         0.00000000
  -V(xc)+E(xc)   XCENC  =       -67.34508133
  PAW double counting   =      2254.22841906    -2171.98842101
  entropy T*S    EENTRO =         0.00073428
  eigenvalues    EBANDS =      -342.74206947
  atomic energy  EATOM  =      2642.01744135
  Solvation  Ediel_sol  =         0.00000000
  ---------------------------------------------------
  free energy    TOTEN  =        -0.11314737 eV

  energy without entropy =       -0.11388165  energy(sigma->0) =       -0.11339213


--------------------------------------------------------------------------------------------------------




--------------------------------------- Iteration      1(  10)  ---------------------------------------


    POTLOK:  cpu time    0.0680: real time    0.0682
    SETDIJ:  cpu time    0.1005: real time    0.1005
    EDDIAG:  cpu time    0.0437: real time    0.0437
  RMM-DIIS:  cpu time    0.1813: real time    0.1813
    ORTHCH:  cpu time    0.0011: real time    0.0011
       DOS:  cpu time    0.0004: real time    0.0004
    CHARGE:  cpu time    0.1191: real time    0.1191
    MIXING:  cpu time    0.0032: real time    0.0032
    --------------------------------------------
      LOOP:  cpu time    0.5173: real time    0.5174

 eigenvalue-minimisations  :  1107
 total energy-change (2. order) :-0.2001392E-05  (-0.6055064E-06)
 number of electron      18.0000000 magnetization 
 augmentation part        2.9903225 magnetization 

 Broyden mixing:
  rms(total) = 0.82048E-04    rms(broyden)= 0.81967E-04
  rms(prec ) = 0.15532E-03
  weight for this iteration     100.00

 eigenvalues of (default mixing * dielectric matrix)
  average eigenvalue GAMMA=   1.9027
  3.2285  2.4776  1.9822  0.9126  0.9126

 Free energy of the ion-electron system (eV)
  ---------------------------------------------------
  alpha Z        PSCENC =        56.17027567
  Ewald energy   TEWEN  =     -1651.34684189
  -Hartree energ DENC   =      -719.08957493
  -exchange      EXHF   =         0.00000000
  -V(xc)+E(xc)   XCENC  =       -67.34463247
  PAW double counting   =      2254.49681749    -2172.25736696
  entropy T*S    EENTRO =         0.00073435
  eigenvalues    EBANDS =      -342.76000198
  atomic energy  EATOM  =      2642.01744135
  Solvation  Ediel_sol  =         0.00000000
  ---------------------------------------------------
  free energy    TOTEN  =        -0.11314938 eV

  energy without entropy =       -0.11388372  energy(sigma->0) =       -0.11339416


--------------------------------------------------------------------------------------------------------




--------------------------------------- Iteration      1(  11)  ---------------------------------------


    POTLOK:  cpu time    0.0614: real time    0.0617
    SETDIJ:  cpu time    0.0932: real time    0.0933
    EDDIAG:  cpu time    0.0420: real time    0.0420
  RMM-DIIS:  cpu time    0.1677: real time    0.1678
    ORTHCH:  cpu time    0.0011: real time    0.0011
       DOS:  cpu time    0.0005: real time    0.0005
    CHARGE:  cpu time    0.1240: real time    0.1240
    MIXING:  cpu time    0.0029: real time    0.0029
    --------------------------------------------
      LOOP:  cpu time    0.4927: real time    0.4930

 eigenvalue-minimisations  :  1030
 total energy-change (2. order) :-0.1878379E-07  (-0.1331536E-06)
 number of electron      18.0000000 magnetization 
 augmentation part        2.9903394 magnetization 

 Broyden mixing:
  rms(total) = 0.49011E-04    rms(broyden)= 0.48950E-04
  rms(prec ) = 0.13338E-03
  weight for this iteration     100.00

 eigenvalues of (default mixing * dielectric matrix)
  average eigenvalue GAMMA=   2.0204
  3.3466  2.5460  2.1749  2.1749  0.9401  0.9401

 Free energy of the ion-electron system (eV)
  ---------------------------------------------------
  alpha Z        PSCENC =        56.17027567
  Ewald energy   TEWEN  =     -1651.34684189
  -Hartree energ DENC   =      -719.08639081
  -exchange      EXHF   =         0.00000000
  -V(xc)+E(xc)   XCENC  =       -67.34481302
  PAW double counting   =      2254.39229662    -2172.15136286
  entropy T*S    EENTRO =         0.00073439
  eigenvalues    EBANDS =      -342.76448884
  atomic energy  EATOM  =      2642.01744135
  Solvation  Ediel_sol  =         0.00000000
  ---------------------------------------------------
  free energy    TOTEN  =        -0.11314939 eV

  energy without entropy =       -0.11388379  energy(sigma->0) =       -0.11339419


--------------------------------------------------------------------------------------------------------




--------------------------------------- Iteration      1(  12)  ---------------------------------------


    POTLOK:  cpu time    0.0678: real time    0.0682
    SETDIJ:  cpu time    0.1071: real time    0.1071
    EDDIAG:  cpu time    0.0431: real time    0.0431
  RMM-DIIS:  cpu time    0.1456: real time    0.1456
    ORTHCH:  cpu time    0.0011: real time    0.0011
       DOS:  cpu time    0.0004: real time    0.0004
    CHARGE:  cpu time    0.1243: real time    0.1243
    MIXING:  cpu time    0.0028: real time    0.0028
    --------------------------------------------
      LOOP:  cpu time    0.4922: real time    0.4925

 eigenvalue-minimisations  :   844
 total energy-change (2. order) :-0.2025304E-06  (-0.2893656E-07)
 number of electron      18.0000000 magnetization 
 augmentation part        2.9903043 magnetization 

 Broyden mixing:
  rms(total) = 0.25345E-04    rms(broyden)= 0.25241E-04
  rms(prec ) = 0.84809E-04
  weight for this iteration     100.00

 eigenvalues of (default mixing * dielectric matrix)
  average eigenvalue GAMMA=   1.8684
  3.3423  2.6670  2.4077  1.8345  0.9970  0.9970  0.8333

 Free energy of the ion-electron system (eV)
  ---------------------------------------------------
  alpha Z        PSCENC =        56.17027567
  Ewald energy   TEWEN  =     -1651.34684189
  -Hartree energ DENC   =      -719.09288795
  -exchange      EXHF   =         0.00000000
  -V(xc)+E(xc)   XCENC  =       -67.34468727
  PAW double counting   =      2254.43397254    -2172.19431957
  entropy T*S    EENTRO =         0.00073436
  eigenvalues    EBANDS =      -342.75683683
  atomic energy  EATOM  =      2642.01744135
  Solvation  Ediel_sol  =         0.00000000
  ---------------------------------------------------
  free energy    TOTEN  =        -0.11314960 eV

  energy without entropy =       -0.11388395  energy(sigma->0) =       -0.11339438


--------------------------------------------------------------------------------------------------------




--------------------------------------- Iteration      1(  13)  ---------------------------------------


    POTLOK:  cpu time    0.0660: real time    0.0664
    SETDIJ:  cpu time    0.0954: real time    0.0954
    EDDIAG:  cpu time    0.0443: real time    0.0443
  RMM-DIIS:  cpu time    0.1490: real time    0.1490
    ORTHCH:  cpu time    0.0013: real time    0.0013
       DOS:  cpu time    0.0005: real time    0.0005
    CHARGE:  cpu time    0.1217: real time    0.1217
    MIXING:  cpu time    0.0029: real time    0.0029
    --------------------------------------------
      LOOP:  cpu time    0.4811: real time    0.4815

 eigenvalue-minimisations  :   723
 total energy-change (2. order) : 0.1025087E-06  (-0.5574291E-08)
 number of electron      18.0000000 magnetization 
 augmentation part        2.9903140 magnetization 

 Broyden mixing:
  rms(total) = 0.73615E-05    rms(broyden)= 0.69980E-05
  rms(prec ) = 0.20964E-04
  weight for this iteration     100.00

 eigenvalues of (default mixing * dielectric matrix)
  average eigenvalue GAMMA=   1.8667
  3.1585  3.1585  2.4722  1.5802  1.5802  1.1383  0.8904  0.9554

 Free energy of the ion-electron system (eV)
  ---------------------------------------------------
  alpha Z        PSCENC =        56.17027567
  Ewald energy   TEWEN  =     -1651.34684189
  -Hartree energ DENC   =      -719.09019266
  -exchange      EXHF   =         0.00000000
  -V(xc)+E(xc)   XCENC  =       -67.34477679
  PAW double counting   =      2254.39670022    -2172.15640509
  entropy T*S    EENTRO =         0.00073438
  eigenvalues    EBANDS =      -342.76008469
  atomic energy  EATOM  =      2642.01744135
  Solvation  Ediel_sol  =         0.00000000
  ---------------------------------------------------
  free energy    TOTEN  =        -0.11314949 eV

  energy without entropy =       -0.11388387  energy(sigma->0) =       -0.11339429


--------------------------------------------------------------------------------------------------------




--------------------------------------- Iteration      1(  14)  ---------------------------------------


    POTLOK:  cpu time    0.0618: real time    0.0620
    SETDIJ:  cpu time    0.1062: real time    0.1062
    EDDIAG:  cpu time    0.0447: real time    0.0447
  RMM-DIIS:  cpu time    0.1328: real time    0.1328
    ORTHCH:  cpu time    0.0011: real time    0.0011
       DOS:  cpu time    0.0005: real time    0.0005
    --------------------------------------------
      LOOP:  cpu time    0.3471: real time    0.3473

 eigenvalue-minimisations  :   627
 total energy-change (2. order) : 0.3644573E-07  (-0.2992259E-08)
 number of electron      18.0000000 magnetization 
 augmentation part        2.9903140 magnetization 

 Free energy of the ion-electron system (eV)
  ---------------------------------------------------
  alpha Z        PSCENC =        56.17027567
  Ewald energy   TEWEN  =     -1651.34684189
  -Hartree energ DENC   =      -719.08897907
  -exchange      EXHF   =         0.00000000
  -V(xc)+E(xc)   XCENC  =       -67.34480820
  PAW double counting   =      2254.38580797    -2172.14524816
  entropy T*S    EENTRO =         0.00073439
  eigenvalues    EBANDS =      -342.76153152
  atomic energy  EATOM  =      2642.01744135
  Solvation  Ediel_sol  =         0.00000000
  ---------------------------------------------------
  free energy    TOTEN  =        -0.11314946 eV

  energy without entropy =       -0.11388384  energy(sigma->0) =       -0.11339425


--------------------------------------------------------------------------------------------------------




 average (electrostatic) potential at core
  the test charge radii are     1.2024
  (the norm of the test charge is              1.0000)
       1-113.3938
 
 
 
 E-fermi :   0.2729     XC(G=0):  -7.6139     alpha+bet : -6.4606


 k-point     1 :       0.0000    0.0000    0.0000
  band No.  band energies     occupation 
      1     -29.3395      2.00000
      2     -29.3395      2.00000
      3     -29.3395      2.00000
      4     -29.3379      2.00000
      5     -29.3379      2.00000
      6     -22.3248      2.00000
      7       0.2363      1.57570
      8       0.2363      1.57570
      9       0.2363      1.57570
     10       2.5837     -0.00000
     11       9.3654      0.00000
     12       9.3654      0.00000
     13       9.3656      0.00000

 k-point     2 :       0.1111   -0.0000   -0.0000
  band No.  band energies     occupation 
      1     -29.3394      2.00000
      2     -29.3393      2.00000
      3     -29.3393      2.00000
      4     -29.3378      2.00000
      5     -29.3378      2.00000
      6     -22.3191      2.00000
      7      -0.2608      2.00000
      8       0.2001      1.93845
      9       0.2001      1.93845
     10       3.1872      0.00000
     11       8.6874      0.00000
     12       9.4805      0.00000
     13       9.4805      0.00000

 k-point     3 :       0.2222    0.0000    0.0000
  band No.  band energies     occupation 
      1     -29.3390      2.00000
      2     -29.3390      2.00000
      3     -29.3390      2.00000
      4     -29.3374      2.00000
      5     -29.3374      2.00000
      6     -22.3044      2.00000
      7      -1.0590      2.00000
      8       0.1112      2.04458
      9       0.1112      2.04458
     10       4.1739      0.00000
     11       8.3944      0.00000
     12       9.5135      0.00000
     13       9.5135      0.00000

 k-point     4 :       0.3333   -0.0000   -0.0000
  band No.  band energies     occupation 
      1     -29.3391      2.00000
      2     -29.3391      2.00000
      3     -29.3386      2.00000
      4     -29.3364      2.00000
      5     -29.3364      2.00000
      6     -22.2876      2.00000
      7      -1.6855      2.00000
      8       0.0146      2.00158
      9       0.0146      2.00158
     10       4.7701      0.00000
     11       8.9400      0.00000
     12       9.2121      0.00000
     13       9.2121      0.00000

 k-point     5 :       0.4444    0.0000    0.0000
  band No.  band energies     occupation 
      1     -29.3392      2.00000
      2     -29.3392      2.00000
      3     -29.3384      2.00000
      4     -29.3357      2.00000
      5     -29.3357      2.00000
      6     -22.2766      2.00000
      7      -2.0185      2.00000
      8      -0.0462      2.00006
      9      -0.0462      2.00006
     10       4.9293      0.00000
     11       8.9921      0.00000
     12       8.9921      0.00000
     13       9.3453      0.00000

 k-point     6 :       0.1111    0.1111   -0.0000
  band No.  band energies     occupation 
      1     -29.3396      2.00000
      2     -29.3390      2.00000
      3     -29.3390      2.00000
      4     -29.3381      2.00000
      5     -29.3377      2.00000
      6     -22.3172      2.00000
      7      -0.2876      2.00000
      8       0.1229      2.05532
      9       0.1229      2.05532
     10       3.3928      0.00000
     11       8.4183      0.00000
     12       9.6323      0.00000
     13       9.6336      0.00000

 k-point     7 :       0.2222    0.1111    0.0000
  band No.  band energies     occupation 
      1     -29.3396      2.00000
      2     -29.3386      2.00000
      3     -29.3386      2.00000
      4     -29.3379      2.00000
      5     -29.3372      2.00000
      6     -22.3055      2.00000
      7      -0.8861      2.00000
      8       0.0060      2.00105
      9       0.0387      2.00455
     10       4.2593      0.00000
     11       8.0360      0.00000
     12       9.1542      0.00000
     13       9.8420      0.00000

 k-point     8 :       0.3333    0.1111   -0.0000
  band No.  band energies     occupation 
      1     -29.3393      2.00000
      2     -29.3386      2.00000
      3     -29.3385      2.00000
      4     -29.3371      2.00000
      5     -29.3363      2.00000
      6     -22.2894      2.00000
      7      -1.4963      2.00000
      8      -0.0942      2.00000
      9      -0.0911      2.00000
     10       5.0273      0.00000
     11       8.2812      0.00000
     12       8.5372      0.00000
     13       9.6667      0.00000

 k-point     9 :       0.4444    0.1111    0.0000
  band No.  band energies     occupation 
      1     -29.3392      2.00000
      2     -29.3387      2.00000
      3     -29.3383      2.00000
      4     -29.3363      2.00000
      5     -29.3357      2.00000
      6     -22.2764      2.00000
      7      -1.8848      2.00000
      8      -0.2340      2.00000
      9      -0.1348      2.00000
     10       5.3265      0.00000
     11       8.1679      0.00000
     12       9.3533      0.00000
     13       9.3550      0.00000

 k-point    10 :      -0.4444    0.1111   -0.0000
  band No.  band energies     occupation 
      1     -29.3392      2.00000
      2     -29.3388      2.00000
      3     -29.3381      2.00000
      4     -29.3358      2.00000
      5     -29.3357      2.00000
      6     -22.2727      2.00000
      7      -1.9824      2.00000
      8      -0.3233      2.00000
      9      -0.1000      2.00000
     10       5.3769      0.00000
     11       8.1133      0.00000
     12       9.1913      0.00000
     13      10.0480      0.00000

 k-point    11 :      -0.3333    0.1111    0.0000
  band No.  band energies     occupation 
      1     -29.3390      2.00000
      2     -29.3387      2.00000
      3     -29.3384      2.00000
      4     -29.3365      2.00000
      5     -29.3359      2.00000
      6     -22.2801      2.00000
      7      -1.7785      2.00000
      8      -0.3172      2.00000
      9      -0.0035      2.00066
     10       5.2833      0.00000
     11       8.3495      0.00000
     12       9.0929      0.00000
     13       9.2557      0.00000

 k-point    12 :      -0.2222    0.1111   -0.0000
  band No.  band energies     occupation 
      1     -29.3389      2.00000
      2     -29.3388      2.00000
      3     -29.3386      2.00000
      4     -29.3375      2.00000
      5     -29.3366      2.00000
      6     -22.2949      2.00000
      7      -1.3125      2.00000
      8      -0.2056      2.00000
      9       0.1138      2.04691
     10       4.8076      0.00000
     11       8.2728      0.00000
     12       8.8486      0.00000
     13       9.5530      0.00000

 k-point    13 :      -0.1111    0.1111   -0.0000
  band No.  band energies     occupation 
      1     -29.3393      2.00000
      2     -29.3390      2.00000
      3     -29.3389      2.00000
      4     -29.3380      2.00000
      5     -29.3374      2.00000
      6     -22.3104      2.00000
      7      -0.7097      2.00000
      8      -0.0034      2.00066
      9       0.1963      1.96186
     10       3.8984      0.00000
     11       8.2980      0.00000
     12       9.4246      0.00000
     13       9.6369      0.00000

 k-point    14 :       0.2222    0.2222   -0.0000
  band No.  band energies     occupation 
      1     -29.3400      2.00000
      2     -29.3384      2.00000
      3     -29.3377      2.00000
      4     -29.3377      2.00000
      5     -29.3371      2.00000
      6     -22.2976      2.00000
      7      -1.0438      2.00000
      8      -0.1441      2.00000
      9      -0.1441      2.00000
     10       4.8277      0.00000
     11       7.5185      0.00000
     12       8.6907      0.00000
     13      10.3376      0.00000

 k-point    15 :       0.3333    0.2222   -0.0000
  band No.  band energies     occupation 
      1     -29.3400      2.00000
      2     -29.3386      2.00000
      3     -29.3375      2.00000
      4     -29.3369      2.00000
      5     -29.3363      2.00000
      6     -22.2845      2.00000
      7      -1.4199      2.00000
      8      -0.3193      2.00000
      9      -0.2673      2.00000
     10       5.4776      0.00000
     11       7.3887      0.00000
     12       8.2942      0.00000
     13      10.4916      0.00000

 k-point    16 :       0.4444    0.2222   -0.0000
  band No.  band energies     occupation 
      1     -29.3396      2.00000
      2     -29.3383      2.00000
      3     -29.3376      2.00000
      4     -29.3365      2.00000
      5     -29.3356      2.00000
      6     -22.2723      2.00000
      7      -1.7028      2.00000
      8      -0.5789      2.00000
      9      -0.3127      2.00000
     10       5.8989      0.00000
     11       7.7817      0.00000
     12       8.2003      0.00000
     13      10.2010      0.00000

 k-point    17 :      -0.4444    0.2222   -0.0000
  band No.  band energies     occupation 
      1     -29.3394      2.00000
      2     -29.3378      2.00000
      3     -29.3377      2.00000
      4     -29.3364      2.00000
      5     -29.3357      2.00000
      6     -22.2666      2.00000
      7      -1.7865      2.00000
      8      -0.8164      2.00000
      9      -0.2634      2.00000
     10       6.1105      0.00000
     11       7.7035      0.00000
     12       9.3103      0.00000
     13       9.8997      0.00000

 k-point    18 :      -0.3333    0.2222   -0.0000
  band No.  band energies     occupation 
      1     -29.3392      2.00000
      2     -29.3378      2.00000
      3     -29.3377      2.00000
      4     -29.3365      2.00000
      5     -29.3363      2.00000
      6     -22.2703      2.00000
      7      -1.6933      2.00000
      8      -0.8781      2.00000
      9      -0.1378      2.00000
     10       6.1976      0.00000
     11       7.7276      0.00000
     12       9.0741      0.00000
     13       9.7497      0.00000

 k-point    19 :      -0.2222    0.2222   -0.0000
  band No.  band energies     occupation 
      1     -29.3390      2.00000
      2     -29.3383      2.00000
      3     -29.3378      2.00000
      4     -29.3376      2.00000
      5     -29.3361      2.00000
      6     -22.2815      2.00000
      7      -1.5237      2.00000
      8      -0.6452      2.00000
      9       0.0121      2.00141
     10       5.7475      0.00000
     11       8.0936      0.00000
     12       8.2978      0.00000
     13       9.7299      0.00000

 k-point    20 :       0.3333    0.3333   -0.0000
  band No.  band energies     occupation 
      1     -29.3405      2.00000
      2     -29.3388      2.00000
      3     -29.3365      2.00000
      4     -29.3361      2.00000
      5     -29.3361      2.00000
      6     -22.2753      2.00000
      7      -1.5806      2.00000
      8      -0.4193      2.00000
      9      -0.4193      2.00000
     10       5.5329      0.00000
     11       6.9108      0.00000
     12       8.8425      0.00000
     13      11.2845      0.00000

 k-point    21 :       0.4444    0.3333    0.0000
  band No.  band energies     occupation 
      1     -29.3403      2.00000
      2     -29.3388      2.00000
      3     -29.3365      2.00000
      4     -29.3357      2.00000
      5     -29.3355      2.00000
      6     -22.2661      2.00000
      7      -1.7252      2.00000
      8      -0.6386      2.00000
      9      -0.4878      2.00000
     10       5.6501      0.00000
     11       6.9672      0.00000
     12       9.2045      0.00000
     13      11.3255      0.00000

 k-point    22 :      -0.4444    0.3333   -0.0000
  band No.  band energies     occupation 
      1     -29.3398      2.00000
      2     -29.3383      2.00000
      3     -29.3367      2.00000
      4     -29.3359      2.00000
      5     -29.3355      2.00000
      6     -22.2611      2.00000
      7      -1.6714      2.00000
      8      -1.0271      2.00000
      9      -0.4478      2.00000
     10       5.9310      0.00000
     11       7.6328      0.00000
     12       9.2331      0.00000
     13      10.9364      0.00000

 k-point    23 :      -0.3333    0.3333    0.0000
  band No.  band energies     occupation 
      1     -29.3395      2.00000
      2     -29.3373      2.00000
      3     -29.3370      2.00000
      4     -29.3367      2.00000
      5     -29.3361      2.00000
      6     -22.2628      2.00000
      7      -1.4310      2.00000
      8      -1.3684      2.00000
      9      -0.3134      2.00000
     10       6.2728      0.00000
     11       8.1095      0.00000
     12       9.4280      0.00000
     13       9.8298      0.00000

 k-point    24 :       0.4444    0.4444   -0.0000
  band No.  band energies     occupation 
      1     -29.3408      2.00000
      2     -29.3391      2.00000
      3     -29.3360      2.00000
      4     -29.3352      2.00000
      5     -29.3352      2.00000
      6     -22.2607      2.00000
      7      -1.8455      2.00000
      8      -0.5856      2.00000
      9      -0.5856      2.00000
     10       5.3378      0.00000
     11       6.6058      0.00000
     12      10.6344      0.00000
     13      12.1550      0.00000

 k-point    25 :      -0.4444    0.4444   -0.0000
  band No.  band energies     occupation 
      1     -29.3405      2.00000
      2     -29.3390      2.00000
      3     -29.3361      2.00000
      4     -29.3352      2.00000
      5     -29.3352      2.00000
      6     -22.2587      2.00000
      7      -1.8181      2.00000
      8      -0.7652      2.00000
      9      -0.5706      2.00000
     10       5.4990      0.00000
     11       6.8237      0.00000
     12      10.9897      0.00000
     13      11.0665      0.00000

 k-point    26 :       0.3333    0.2222    0.1111
  band No.  band energies     occupation 
      1     -29.3395      2.00000
      2     -29.3386      2.00000
      3     -29.3379      2.00000
      4     -29.3377      2.00000
      5     -29.3366      2.00000
      6     -22.2931      2.00000
      7      -1.2541      2.00000
      8      -0.2973      2.00000
      9      -0.0106      2.00046
     10       5.0770      0.00000
     11       7.8064      0.00000
     12       8.4788      0.00000
     13      10.2474      0.00000

 k-point    27 :       0.4444    0.2222    0.1111
  band No.  band energies     occupation 
      1     -29.3391      2.00000
      2     -29.3386      2.00000
      3     -29.3379      2.00000
      4     -29.3369      2.00000
      5     -29.3360      2.00000
      6     -22.2789      2.00000
      7      -1.6092      2.00000
      8      -0.5442      2.00000
      9      -0.1225      2.00000
     10       5.7930      0.00000
     11       7.9104      0.00000
     12       8.1796      0.00000
     13       9.9473      0.00000

 k-point    28 :      -0.4444    0.2222    0.1111
  band No.  band energies     occupation 
      1     -29.3391      2.00000
      2     -29.3385      2.00000
      3     -29.3377      2.00000
      4     -29.3364      2.00000
      5     -29.3357      2.00000
      6     -22.2696      2.00000
      7      -1.8189      2.00000
      8      -0.6630      2.00000
      9      -0.2205      2.00000
     10       6.0482      0.00000
     11       7.5994      0.00000
     12       9.2942      0.00000
     13       9.7617      0.00000

 k-point    29 :       0.4444    0.3333    0.1111
  band No.  band energies     occupation 
      1     -29.3398      2.00000
      2     -29.3387      2.00000
      3     -29.3372      2.00000
      4     -29.3362      2.00000
      5     -29.3359      2.00000
      6     -22.2733      2.00000
      7      -1.6040      2.00000
      8      -0.5959      2.00000
      9      -0.3616      2.00000
     10       5.9229      0.00000
     11       7.3304      0.00000
     12       8.2084      0.00000
     13      10.9965      0.00000

 k-point    30 :      -0.4444    0.3333    0.1111
  band No.  band energies     occupation 
      1     -29.3393      2.00000
      2     -29.3384      2.00000
      3     -29.3373      2.00000
      4     -29.3361      2.00000
      5     -29.3355      2.00000
      6     -22.2647      2.00000
      7      -1.6607      2.00000
      8      -0.8956      2.00000
      9      -0.4512      2.00000
     10       6.3291      0.00000
     11       7.7350      0.00000
     12       8.1919      0.00000
     13      10.7087      0.00000

 k-point    31 :      -0.3333    0.3333    0.1111
  band No.  band energies     occupation 
      1     -29.3391      2.00000
      2     -29.3378      2.00000
      3     -29.3370      2.00000
      4     -29.3369      2.00000
      5     -29.3356      2.00000
      6     -22.2627      2.00000
      7      -1.5859      2.00000
      8      -1.1316      2.00000
      9      -0.4115      2.00000
     10       6.6499      0.00000
     11       7.5769      0.00000
     12       9.1432      0.00000
     13       9.7243      0.00000

 k-point    32 :      -0.2222    0.3333    0.1111
  band No.  band energies     occupation 
      1     -29.3389      2.00000
      2     -29.3383      2.00000
      3     -29.3375      2.00000
      4     -29.3362      2.00000
      5     -29.3362      2.00000
      6     -22.2683      2.00000
      7      -1.5935      2.00000
      8      -0.9888      2.00000
      9      -0.2679      2.00000
     10       6.6796      0.00000
     11       7.4224      0.00000
     12       8.3739      0.00000
     13      10.3397      0.00000

 k-point    33 :      -0.4444    0.4444    0.1111
  band No.  band energies     occupation 
      1     -29.3401      2.00000
      2     -29.3388      2.00000
      3     -29.3364      2.00000
      4     -29.3357      2.00000
      5     -29.3352      2.00000
      6     -22.2604      2.00000
      7      -1.7449      2.00000
      8      -0.7747      2.00000
      9      -0.6200      2.00000
     10       5.7958      0.00000
     11       7.0703      0.00000
     12       9.5384      0.00000
     13      11.1550      0.00000

 k-point    34 :      -0.3333    0.4444    0.1111
  band No.  band energies     occupation 
      1     -29.3394      2.00000
      2     -29.3383      2.00000
      3     -29.3366      2.00000
      4     -29.3365      2.00000
      5     -29.3352      2.00000
      6     -22.2591      2.00000
      7      -1.5887      2.00000
      8      -1.1093      2.00000
      9      -0.5869      2.00000
     10       6.2348      0.00000
     11       7.7319      0.00000
     12       9.1816      0.00000
     13       9.8239      0.00000

 k-point    35 :      -0.3333    0.4444    0.2222
  band No.  band energies     occupation 
      1     -29.3385      2.00000
      2     -29.3384      2.00000
      3     -29.3374      2.00000
      4     -29.3366      2.00000
      5     -29.3352      2.00000
      6     -22.2598      2.00000
      7      -1.4725      2.00000
      8      -1.1908      2.00000
      9      -0.6442      2.00000
     10       6.9518      0.00000
     11       7.8361      0.00000
     12       8.2784      0.00000
     13       9.4969      0.00000


--------------------------------------------------------------------------------------------------------


 soft charge-density along one line, spin component           1
         0         1         2         3         4         5         6         7         8         9
 total charge-density along one line
 
 pseudopotential strength for first ion, spin component:           1
-22.934   0.000  -0.000   0.000   0.000   8.946  -0.000   0.000
  0.000 -22.934  -0.000   0.000   0.000  -0.000   8.946   0.000
 -0.000  -0.000 -22.934  -0.000  -0.000   0.000   0.000   8.946
  0.000   0.000  -0.000 -22.934   0.000  -0.000  -0.000   0.000
  0.000   0.000  -0.000   0.000 -22.934  -0.000  -0.000   0.000
  8.946  -0.000   0.000  -0.000  -0.000  19.797  -0.000   0.000
 -0.000   8.946   0.000  -0.000  -0.000  -0.000  19.797   0.000
  0.000   0.000   8.946   0.000   0.000   0.000   0.000  19.797
 -0.000  -0.000   0.000   8.946  -0.000   0.000   0.000   0.000
 -0.000  -0.000   0.000  -0.000   8.946  -0.000   0.000   0.000
 -0.000  -0.000  -0.000  -0.000  -0.000  -0.000  -0.000   0.000
 -0.000  -0.000   0.000  -0.000  -0.000   0.000   0.000  -0.000
  0.000   0.000   0.000  -0.000   0.000   0.000   0.000   0.000
 -0.000  -0.000   0.000   0.000  -0.000  -0.000  -0.000   0.000
 -0.000  -0.000  -0.000  -0.000   0.000  -0.000  -0.000  -0.000
  0.000   0.000   0.000  -0.000   0.000   0.000   0.000   0.000
 -0.000  -0.000   0.000   0.000  -0.000  -0.000  -0.000   0.000
 -0.000  -0.000  -0.000   0.000   0.000  -0.000  -0.000  -0.000
 total augmentation occupancy for first ion, spin component:           1
  2.000   0.000   0.000   0.000  -0.000   0.000   0.000   0.000  -0.000  -0.000  -0.000   0.000   0.000   0.000   0.000   0.000
  0.000   2.000  -0.000  -0.000   0.000   0.000   0.000   0.000  -0.000  -0.000   0.000  -0.000   0.000   0.000   0.000   0.000
  0.000  -0.000   2.000   0.000  -0.000   0.000   0.000   0.000   0.000  -0.000   0.000   0.000   0.000   0.000   0.000   0.000
  0.000  -0.000   0.000   2.000   0.000  -0.000  -0.000   0.000   0.000   0.000  -0.000  -0.000   0.000   0.000   0.000   0.000
  0.000   0.000  -0.000   0.000   2.000  -0.000  -0.000  -0.000   0.000   0.000  -0.000   0.000   0.000   0.000   0.000   0.000
  0.000   0.000  -0.000  -0.000  -0.000   0.000   0.000   0.000   0.000   0.000   0.000  -0.000   0.000   0.000   0.000   0.000
  0.000   0.000   0.000  -0.000  -0.000   0.000   0.000  -0.000  -0.000   0.000   0.000  -0.000   0.000   0.000   0.000   0.000
  0.000   0.000   0.000   0.000  -0.000   0.000  -0.000   0.000  -0.000  -0.000   0.000  -0.000   0.000   0.000   0.000   0.000
 -0.000  -0.000   0.000   0.000   0.000   0.000  -0.000   0.000   0.000   0.000  -0.000   0.000   0.000   0.000   0.000   0.000
 -0.000  -0.000  -0.000   0.000   0.000   0.000   0.000  -0.000   0.000   0.000   0.000  -0.000   0.000   0.000   0.000   0.000
  0.000   0.000  -0.000  -0.000  -0.000  -0.000   0.000   0.000  -0.000   0.000   1.996  -0.010   0.000   0.000   0.000   0.000
  0.000   0.000  -0.000  -0.000   0.000  -0.000  -0.000  -0.000   0.000  -0.000  -0.010   0.001   0.000   0.000   0.000   0.000
  0.000   0.000   0.000   0.000   0.000   0.000   0.000   0.000   0.000   0.000   0.000   0.000   1.978  -0.000  -0.000   0.006
  0.000   0.000   0.000   0.000   0.000   0.000   0.000   0.000   0.000   0.000   0.000   0.000  -0.000   1.978   0.000  -0.000
  0.000   0.000   0.000   0.000   0.000   0.000   0.000   0.000   0.000   0.000   0.000   0.000  -0.000   0.000   1.978  -0.000
  0.000   0.000   0.000   0.000   0.000   0.000   0.000   0.000   0.000   0.000   0.000   0.000   0.006  -0.000  -0.000   0.000
  0.000   0.000   0.000   0.000   0.000   0.000   0.000   0.000   0.000   0.000   0.000   0.000  -0.000   0.006   0.000  -0.000
  0.000   0.000   0.000   0.000   0.000   0.000   0.000   0.000   0.000   0.000   0.000   0.000  -0.000   0.000   0.006  -0.000


------------------------ aborting loop because EDIFF is reached ----------------------------------------


    CHARGE:  cpu time    0.1326: real time    0.1326
    FORLOC:  cpu time    0.0022: real time    0.0022
    FORNL :  cpu time    0.6665: real time    0.6665
    STRESS:  cpu time    1.7976: real time    1.7992
    FORCOR:  cpu time    0.0648: real time    0.0648
    FORHAR:  cpu time    0.0133: real time    0.0133
    MIXING:  cpu time    0.0203: real time    0.0203
    OFIELD:  cpu time    0.0001: real time    0.0001

  FORCE on cell =-STRESS in cart. coord.  units (eV):
  Direction    XX          YY          ZZ          XY          YZ          ZX
  --------------------------------------------------------------------------------------
  Alpha Z    56.17028    56.17028    56.17028
  Ewald    -550.44897  -550.44897  -550.44897    -0.00000    -0.00000     0.00000
  Hartree   239.69674   239.69674   239.69674     0.00000    -0.00000     0.00000
  E(xc)    -108.82451  -108.82451  -108.82451    -0.00000    -0.00000    -0.00000
  Local    -201.48417  -201.48417  -201.48418     0.00001     0.00000     0.00000
  n-local    95.97854    99.20230   101.22935     1.14958    -0.29037     3.30658
  augment    79.48731    79.48731    79.48731    -0.00001    -0.00000    -0.00000
  Kinetic   384.18773   386.81445   388.51804     1.15448     0.07803     2.85068
  Fock        0.00000     0.00000     0.00000     0.00000     0.00000     0.00000
  -------------------------------------------------------------------------------------
  Total      -0.09318    -0.09318    -0.09318    -0.00000     0.00000    -0.00000
  in kB      -2.19802    -2.19802    -2.19802    -0.00000     0.00000    -0.00000
  external pressure =       -2.20 kB  Pullay stress =        0.00 kB


 VOLUME and BASIS-vectors are now :
 -----------------------------------------------------------------------------
  energy-cutoff  :      600.00
  volume of cell :       67.92
      direct lattice vectors                 reciprocal lattice vectors
     4.579774187  0.000000000  0.000000000     0.218351377 -0.126065226 -0.089141576
     2.289887093  3.966200789 -0.000000000     0.000000000  0.252130453 -0.089141576
     2.289887093  1.322066930  3.739369965    -0.000000000  0.000000000  0.267424729

  length of vectors
     4.579774187  4.579774187  4.579774187     0.267424729  0.267424729  0.267424729


 FORCES acting on ions
    electron-ion (+dipol)            ewald-force                    non-local-force                 convergence-correction
 -----------------------------------------------------------------------------------------------
   -.264E-13 0.566E-14 -.647E-13   0.237E-14 0.246E-16 0.168E-14   0.265E-22 -.238E-21 -.212E-21   -.120E-12 -.328E-14 -.105E-12
 -----------------------------------------------------------------------------------------------
   -.264E-13 0.566E-14 -.647E-13   0.237E-14 0.246E-16 0.168E-14   0.265E-22 -.238E-21 -.212E-21   -.120E-12 -.328E-14 -.105E-12
 
 
 POSITION                                       TOTAL-FORCE (eV/Angst)
 -----------------------------------------------------------------------------------
      0.00000      0.00000      0.00000         0.000000      0.000000      0.000000
 -----------------------------------------------------------------------------------
    total drift:                               -0.000000      0.000000     -0.000000


--------------------------------------------------------------------------------------------------------



  FREE ENERGIE OF THE ION-ELECTRON SYSTEM (eV)
  ---------------------------------------------------
  free  energy   TOTEN  =        -0.11314946 eV

  energy  without entropy=       -0.11388384  energy(sigma->0) =       -0.11339425
 


--------------------------------------------------------------------------------------------------------


    POTLOK:  cpu time    0.1551: real time    0.1551


--------------------------------------------------------------------------------------------------------


     LOOP+:  cpu time    8.7309: real time    8.7414
    4ORBIT:  cpu time    0.0000: real time    0.0000

 total amount of memory used by VASP MPI-rank0    63461. kBytes
=======================================================================

   base      :      30000. kBytes
   nonl-proj :       2897. kBytes
   fftplans  :      19355. kBytes
   grid      :       6892. kBytes
   one-center:         15. kBytes
   wavefun   :       4302. kBytes
 
  
  
 General timing and accounting informations for this job:
 ========================================================
  
                  Total CPU time used (sec):        9.975
                            User time (sec):        8.255
                          System time (sec):        1.720
                         Elapsed time (sec):       10.409
  
                   Maximum memory used (kb):      125580.
                   Average memory used (kb):           0.
  
                          Minor page faults:       545600
                          Major page faults:            0
                 Voluntary context switches:         1287
