<?xml version="1.0" encoding="ISO-8859-1"?>
<modeling>
 <generator>
  <i name="program" type="string">vasp </i>
  <i name="version" type="string">5.4.4.18Apr17-6-g9f103f2a35  </i>
  <i name="subversion" type="string">(build Jul 09 2018 16:27:08) complex            parallel </i>
  <i name="platform" type="string">LinuxIFC </i>
  <i name="date" type="string">2018 11 26 </i>
  <i name="time" type="string">01:47:37 </i>
 </generator>
 <incar>
  <i type="string" name="SYSTEM">   Og_FCC</i>
  <i type="string" name="PREC">accurate</i>
  <i type="string" name="ALGO">   Fast</i>
  <i type="logical" name="ADDGRID"> T  </i>
  <i type="logical" name="LSORBIT"> F  </i>
  <i type="int" name="ISPIN">     1</i>
  <i type="int" name="MAXMIX">    50</i>
  <i type="int" name="NELM">   100</i>
  <i type="int" name="NELMDL">    -5</i>
  <i type="int" name="NELMIN">     5</i>
  <i type="int" name="IBRION">    -1</i>
  <i type="int" name="NFREE">     5</i>
  <i name="EDIFF">      0.00000010</i>
  <i name="EDIFFG">      0.00001000</i>
  <i type="int" name="NSW">     1</i>
  <i type="int" name="ISIF">     7</i>
  <i type="int" name="ISYM">     2</i>
  <i name="SYMPREC">      0.00000010</i>
  <i name="ENCUT">    600.00000000</i>
  <i name="POTIM">      0.10000000</i>
  <i type="logical" name="LREAL"> F  </i>
  <i type="int" name="ISMEAR">     1</i>
  <i name="SIGMA">      0.10000000</i>
  <i name="KSPACING">      0.20000000</i>
  <i type="int" name="NWRITE">     2</i>
  <i type="logical" name="LWAVE"> F  </i>
  <i type="logical" name="LCHARG"> F  </i>
  <i type="logical" name="LVTOT"> F  </i>
  <i type="logical" name="GGA_COMPAT"> F  </i>
  <v type="int" name="KPOINT_BSE">    -1     0     0     0</v>
  <i type="int" name="NELM">   100</i>
  <i type="string" name="GGA"> PS</i>
 </incar>
 <structure name="primitive_cell" >
  <crystal>
   <varray name="basis" >
    <v>       4.57977419       0.00000000       0.00000000 </v>
    <v>       2.28988709       3.96620079      -0.00000000 </v>
    <v>       2.28988709       1.32206693       3.73936997 </v>
   </varray>
   <i name="volume">     67.92305280 </i>
   <varray name="rec_basis" >
    <v>       0.21835138      -0.12606523      -0.08914158 </v>
    <v>       0.00000000       0.25213045      -0.08914158 </v>
    <v>      -0.00000000       0.00000000       0.26742473 </v>
   </varray>
  </crystal>
  <varray name="positions" >
   <v>       0.00000000       0.00000000       0.00000000 </v>
  </varray>
 </structure>
 <varray name="primitive_index" >
  <v type="int" >        1 </v>
 </varray>
 <kpoints>
  <generation param="Gamma">
   <v type="int" name="divisions">       9        9        9 </v>
   <v name="usershift">      0.00000000       0.00000000       0.00000000 </v>
   <v name="genvec1">      0.11111111       0.00000000       0.00000000 </v>
   <v name="genvec2">      0.00000000       0.11111111       0.00000000 </v>
   <v name="genvec3">      0.00000000      -0.00000000       0.11111111 </v>
   <v name="shift">      0.00000000       0.00000000       0.00000000 </v>
  </generation>
  <varray name="kpointlist" >
   <v>       0.00000000       0.00000000       0.00000000 </v>
   <v>       0.11111111      -0.00000000      -0.00000000 </v>
   <v>       0.22222222       0.00000000       0.00000000 </v>
   <v>       0.33333333      -0.00000000      -0.00000000 </v>
   <v>       0.44444444       0.00000000       0.00000000 </v>
   <v>       0.11111111       0.11111111      -0.00000000 </v>
   <v>       0.22222222       0.11111111       0.00000000 </v>
   <v>       0.33333333       0.11111111      -0.00000000 </v>
   <v>       0.44444444       0.11111111       0.00000000 </v>
   <v>      -0.44444444       0.11111111      -0.00000000 </v>
   <v>      -0.33333333       0.11111111       0.00000000 </v>
   <v>      -0.22222222       0.11111111      -0.00000000 </v>
   <v>      -0.11111111       0.11111111      -0.00000000 </v>
   <v>       0.22222222       0.22222222      -0.00000000 </v>
   <v>       0.33333333       0.22222222      -0.00000000 </v>
   <v>       0.44444444       0.22222222      -0.00000000 </v>
   <v>      -0.44444444       0.22222222      -0.00000000 </v>
   <v>      -0.33333333       0.22222222      -0.00000000 </v>
   <v>      -0.22222222       0.22222222      -0.00000000 </v>
   <v>       0.33333333       0.33333333      -0.00000000 </v>
   <v>       0.44444444       0.33333333       0.00000000 </v>
   <v>      -0.44444444       0.33333333      -0.00000000 </v>
   <v>      -0.33333333       0.33333333       0.00000000 </v>
   <v>       0.44444444       0.44444444      -0.00000000 </v>
   <v>      -0.44444444       0.44444444      -0.00000000 </v>
   <v>       0.33333333       0.22222222       0.11111111 </v>
   <v>       0.44444444       0.22222222       0.11111111 </v>
   <v>      -0.44444444       0.22222222       0.11111111 </v>
   <v>       0.44444444       0.33333333       0.11111111 </v>
   <v>      -0.44444444       0.33333333       0.11111111 </v>
   <v>      -0.33333333       0.33333333       0.11111111 </v>
   <v>      -0.22222222       0.33333333       0.11111111 </v>
   <v>      -0.44444444       0.44444444       0.11111111 </v>
   <v>      -0.33333333       0.44444444       0.11111111 </v>
   <v>      -0.33333333       0.44444444       0.22222222 </v>
  </varray>
  <varray name="weights" >
   <v>       0.00137174 </v>
   <v>       0.01097394 </v>
   <v>       0.01097394 </v>
   <v>       0.01097394 </v>
   <v>       0.01097394 </v>
   <v>       0.00823045 </v>
   <v>       0.03292181 </v>
   <v>       0.03292181 </v>
   <v>       0.03292181 </v>
   <v>       0.03292181 </v>
   <v>       0.03292181 </v>
   <v>       0.03292181 </v>
   <v>       0.01646091 </v>
   <v>       0.00823045 </v>
   <v>       0.03292181 </v>
   <v>       0.03292181 </v>
   <v>       0.03292181 </v>
   <v>       0.03292181 </v>
   <v>       0.01646091 </v>
   <v>       0.00823045 </v>
   <v>       0.03292181 </v>
   <v>       0.03292181 </v>
   <v>       0.01646091 </v>
   <v>       0.00823045 </v>
   <v>       0.01646091 </v>
   <v>       0.03292181 </v>
   <v>       0.06584362 </v>
   <v>       0.06584362 </v>
   <v>       0.03292181 </v>
   <v>       0.06584362 </v>
   <v>       0.06584362 </v>
   <v>       0.03292181 </v>
   <v>       0.03292181 </v>
   <v>       0.03292181 </v>
   <v>       0.03292181 </v>
  </varray>
 </kpoints>
 <parameters>
  <separator name="general" >
   <i type="string" name="SYSTEM">Og_FCC</i>
   <i type="logical" name="LCOMPAT"> F  </i>
  </separator>
  <separator name="electronic" >
   <i type="string" name="PREC">accura</i>
   <i name="ENMAX">    600.00000000</i>
   <i name="ENAUG">    361.02500000</i>
   <i name="EDIFF">      0.00000010</i>
   <i type="int" name="IALGO">    68</i>
   <i type="int" name="IWAVPR">    10</i>
   <i type="int" name="NBANDS">    13</i>
   <i name="NELECT">     18.00000000</i>
   <i type="int" name="TURBO">     0</i>
   <i type="int" name="IRESTART">     0</i>
   <i type="int" name="NREBOOT">     0</i>
   <i type="int" name="NMIN">     0</i>
   <i name="EREF">      0.00000000</i>
   <separator name="electronic smearing" >
    <i type="int" name="ISMEAR">     1</i>
    <i name="SIGMA">      0.10000000</i>
    <i name="KSPACING">      0.20000000</i>
    <i type="logical" name="KGAMMA"> T  </i>
   </separator>
   <separator name="electronic projectors" >
    <i type="logical" name="LREAL"> F  </i>
    <v name="ROPT">      0.00000000</v>
    <i type="int" name="LMAXPAW">  -100</i>
    <i type="int" name="LMAXMIX">     2</i>
    <i type="logical" name="NLSPLINE"> F  </i>
   </separator>
   <separator name="electronic startup" >
    <i type="int" name="ISTART">     0</i>
    <i type="int" name="ICHARG">     2</i>
    <i type="int" name="INIWAV">     1</i>
   </separator>
   <separator name="electronic spin" >
    <i type="int" name="ISPIN">     1</i>
    <i type="logical" name="LNONCOLLINEAR"> F  </i>
    <v name="MAGMOM">      1.00000000</v>
    <i name="NUPDOWN">     -1.00000000</i>
    <i type="logical" name="LSORBIT"> F  </i>
    <v name="SAXIS">      0.00000000      0.00000000      1.00000000</v>
    <i type="logical" name="LSPIRAL"> F  </i>
    <v name="QSPIRAL">      0.00000000      0.00000000      0.00000000</v>
    <i type="logical" name="LZEROZ"> F  </i>
   </separator>
   <separator name="electronic exchange-correlation" >
    <i type="logical" name="LASPH"> F  </i>
    <i type="logical" name="LMETAGGA"> F  </i>
   </separator>
   <separator name="electronic convergence" >
    <i type="int" name="NELM">   100</i>
    <i type="int" name="NELMDL">    -5</i>
    <i type="int" name="NELMIN">     5</i>
    <i name="ENINI">    600.00000000</i>
    <separator name="electronic convergence detail" >
     <i type="logical" name="LDIAG"> T  </i>
     <i type="logical" name="LSUBROT"> F  </i>
     <i name="WEIMIN">      0.00000000</i>
     <i name="EBREAK">      0.00000000</i>
     <i name="DEPER">      0.30000000</i>
     <i type="int" name="NRMM">     4</i>
     <i name="TIME">      0.40000000</i>
    </separator>
   </separator>
   <separator name="electronic mixer" >
    <i name="AMIX">      0.40000000</i>
    <i name="BMIX">      1.00000000</i>
    <i name="AMIN">      0.10000000</i>
    <i name="AMIX_MAG">      1.60000000</i>
    <i name="BMIX_MAG">      1.00000000</i>
    <separator name="electronic mixer details" >
     <i type="int" name="IMIX">     4</i>
     <i type="logical" name="MIXFIRST"> F  </i>
     <i type="int" name="MAXMIX">    50</i>
     <i name="WC">    100.00000000</i>
     <i type="int" name="INIMIX">     1</i>
     <i type="int" name="MIXPRE">     1</i>
     <i type="int" name="MREMOVE">     5</i>
    </separator>
   </separator>
   <separator name="electronic dipolcorrection" >
    <i type="logical" name="LDIPOL"> F  </i>
    <i type="logical" name="LMONO"> F  </i>
    <i type="int" name="IDIPOL">     0</i>
    <i name="EPSILON">      1.00000000</i>
    <v name="DIPOL">   -100.00000000   -100.00000000   -100.00000000</v>
    <i name="EFIELD">      0.00000000</i>
   </separator>
  </separator>
  <separator name="grids" >
   <i type="int" name="NGX">    40</i>
   <i type="int" name="NGY">    40</i>
   <i type="int" name="NGZ">    40</i>
   <i type="int" name="NGXF">    80</i>
   <i type="int" name="NGYF">    80</i>
   <i type="int" name="NGZF">    80</i>
   <i type="logical" name="ADDGRID"> T  </i>
  </separator>
  <separator name="ionic" >
   <i type="int" name="NSW">     1</i>
   <i type="int" name="IBRION">    -1</i>
   <i type="int" name="MDALGO">     0</i>
   <i type="int" name="ISIF">     7</i>
   <i name="PSTRESS">      0.00000000</i>
   <i name="EDIFFG">      0.00001000</i>
   <i type="int" name="NFREE">     5</i>
   <i name="POTIM">      0.10000000</i>
   <i name="SMASS">     -3.00000000</i>
   <i name="SCALEE">      1.00000000</i>
  </separator>
  <separator name="ionic md" >
   <i name="TEBEG">      0.00010000</i>
   <i name="TEEND">      0.00010000</i>
   <i type="int" name="NBLOCK">     1</i>
   <i type="int" name="KBLOCK">     1</i>
   <i type="int" name="NPACO">   256</i>
   <i name="APACO">     16.00000000</i>
  </separator>
  <separator name="symmetry" >
   <i type="int" name="ISYM">     2</i>
   <i name="SYMPREC">      0.00000010</i>
  </separator>
  <separator name="dos" >
   <i type="int" name="LORBIT">     0</i>
   <v name="RWIGS">     -1.00000000</v>
   <i type="int" name="NEDOS">   301</i>
   <i name="EMIN">     10.00000000</i>
   <i name="EMAX">    -10.00000000</i>
   <i name="EFERMI">      0.00000000</i>
  </separator>
  <separator name="writing" >
   <i type="int" name="NWRITE">     2</i>
   <i type="logical" name="LWAVE"> F  </i>
   <i type="logical" name="LDOWNSAMPLE"> F  </i>
   <i type="logical" name="LCHARG"> F  </i>
   <i type="logical" name="LPARD"> F  </i>
   <i type="logical" name="LVTOT"> F  </i>
   <i type="logical" name="LVHAR"> F  </i>
   <i type="logical" name="LELF"> F  </i>
   <i type="logical" name="LOPTICS"> F  </i>
   <v name="STM">      0.00000000      0.00000000      0.00000000      0.00000000      0.00000000      0.00000000      0.00000000</v>
  </separator>
  <separator name="performance" >
   <i type="int" name="NPAR">     1</i>
   <i type="int" name="NSIM">     4</i>
   <i type="int" name="NBLK">    -1</i>
   <i type="logical" name="LPLANE"> T  </i>
   <i type="logical" name="LSCALAPACK"> T  </i>
   <i type="logical" name="LSCAAWARE"> F  </i>
   <i type="logical" name="LSCALU"> F  </i>
   <i type="logical" name="LASYNC"> F  </i>
   <i type="logical" name="LORBITALREAL"> F  </i>
  </separator>
  <separator name="miscellaneous" >
   <i type="int" name="IDIOT">     3</i>
   <i type="int" name="ISPECIAL">     0</i>
   <i type="logical" name="LMUSIC"> F  </i>
   <v name="POMASS">      0.01000000</v>
   <v name="DARWINR">      0.00000000</v>
   <v name="DARWINV">      1.00000000</v>
   <i type="logical" name="LCORR"> T  </i>
  </separator>
  <i type="logical" name="GGA_COMPAT"> F  </i>
  <i type="logical" name="LBERRY"> F  </i>
  <i type="int" name="ICORELEVEL">     0</i>
  <i type="logical" name="LDAU"> F  </i>
  <i type="int" name="I_CONSTRAINED_M">     0</i>
  <separator name="electronic exchange-correlation" >
   <i type="string" name="GGA">PS</i>
   <i type="int" name="VOSKOWN">     0</i>
   <i type="logical" name="LHFCALC"> F  </i>
   <i type="string" name="PRECFOCK"></i>
   <i type="logical" name="LSYMGRAD"> F  </i>
   <i type="logical" name="LHFONE"> F  </i>
   <i type="logical" name="LRHFCALC"> F  </i>
   <i type="logical" name="LTHOMAS"> F  </i>
   <i type="logical" name="LMODELHF"> F  </i>
   <i name="ENCUT4O">     -1.00000000</i>
   <i type="int" name="EXXOEP">     0</i>
   <i type="int" name="FOURORBIT">     0</i>
   <i name="AEXX">      0.00000000</i>
   <i name="HFALPHA">      0.00000000</i>
   <i name="MCALPHA">      0.00000000</i>
   <i name="ALDAX">      1.00000000</i>
   <i name="AGGAX">      1.00000000</i>
   <i name="ALDAC">      1.00000000</i>
   <i name="AGGAC">      1.00000000</i>
   <i type="int" name="NKREDX">     1</i>
   <i type="int" name="NKREDY">     1</i>
   <i type="int" name="NKREDZ">     1</i>
   <i type="logical" name="SHIFTRED"> F  </i>
   <i type="logical" name="ODDONLY"> F  </i>
   <i type="logical" name="EVENONLY"> F  </i>
   <i type="int" name="LMAXFOCK">     0</i>
   <i type="int" name="NMAXFOCKAE">     0</i>
   <i type="logical" name="LFOCKAEDFT"> F  </i>
   <i name="HFSCREEN">      0.00000000</i>
   <i name="HFSCREENC">      0.00000000</i>
   <i type="int" name="NBANDSGWLOW">     0</i>
  </separator>
  <separator name="vdW DFT" >
   <i type="logical" name="LUSE_VDW"> F  </i>
   <i name="Zab_VDW">     -0.84910000</i>
   <i name="PARAM1">      0.12340000</i>
   <i name="PARAM2">      1.00000000</i>
   <i name="PARAM3">      0.00000000</i>
  </separator>
  <separator name="model GW" >
   <i type="int" name="MODEL_GW">     0</i>
   <i name="MODEL_EPS0">     40.75383168</i>
   <i name="MODEL_ALPHA">      1.00000000</i>
  </separator>
  <separator name="linear response parameters" >
   <i type="logical" name="LEPSILON"> F  </i>
   <i type="logical" name="LRPA"> F  </i>
   <i type="logical" name="LNABLA"> F  </i>
   <i type="logical" name="LVEL"> F  </i>
   <i type="int" name="KINTER">     0</i>
   <i name="CSHIFT">      0.10000000</i>
   <i name="OMEGAMAX">     -1.00000000</i>
   <i name="DEG_THRESHOLD">      0.00200000</i>
   <i name="RTIME">     -0.10000000</i>
   <i name="WPLASMAI">      0.00000000</i>
   <v name="DFIELD">      0.00000000      0.00000000      0.00000000</v>
   <v name="WPLASMA">      0.00000000      0.00000000      0.00000000      0.00000000      0.00000000      0.00000000      0.00000000      0.00000000      0.00000000</v>
  </separator>
  <separator name="orbital magnetization" >
   <i type="logical" name="NUCIND"> F  </i>
   <v name="MAGPOS">      0.00000000      0.00000000      0.00000000</v>
   <i type="logical" name="LNICSALL"> T  </i>
   <i type="logical" name="ORBITALMAG"> F  </i>
   <i type="logical" name="LMAGBLOCH"> F  </i>
   <i type="logical" name="LCHIMAG"> F  </i>
   <i type="logical" name="LGAUGE"> T  </i>
   <i type="int" name="MAGATOM">     0</i>
   <v name="MAGDIPOL">      0.00000000      0.00000000      0.00000000</v>
   <v name="AVECCONST">      0.00000000      0.00000000      0.00000000</v>
  </separator>
  <separator name="response functions" >
   <i type="logical" name="LADDER"> F  </i>
   <i type="logical" name="LRPAFORCE"> F  </i>
   <i type="logical" name="LFXC"> F  </i>
   <i type="logical" name="LHARTREE"> T  </i>
   <i type="int" name="IBSE">     0</i>
   <v type="int" name="KPOINT">    -1     0     0     0</v>
   <i type="logical" name="LTCTE"> F  </i>
   <i type="logical" name="LTETE"> F  </i>
   <i type="logical" name="LTRIPLET"> F  </i>
   <i type="logical" name="LFXCEPS"> F  </i>
   <i type="logical" name="LFXHEG"> F  </i>
   <i type="int" name="NATURALO">     2</i>
   <i type="logical" name="L2ORDER"> F  </i>
   <i type="logical" name="LMP2LT"> F  </i>
   <i type="logical" name="LUSEW"> F  </i>
   <i name="ENCUTGW">     -2.00000000</i>
   <i name="ENCUTGWSOFT">     -2.00000000</i>
   <i name="ENCUTLF">     -1.00000000</i>
   <i type="int" name="LMAXMP2">    -1</i>
   <i name="SCISSOR">      0.00000000</i>
   <i type="int" name="NOMEGA">     0</i>
   <i type="int" name="NOMEGAR">     0</i>
   <i type="int" name="NBANDSGW">    -1</i>
   <i type="int" name="NBANDSO">    -1</i>
   <i type="int" name="NBANDSV">    -1</i>
   <i type="int" name="NELM">   100</i>
   <i type="int" name="NELMHF">     1</i>
   <i type="int" name="DIM">     3</i>
   <i type="int" name="ANTIRES">     0</i>
   <i name="OMEGAMAX">    -30.00000000</i>
   <i name="OMEGAMIN">    -30.00000000</i>
   <i name="OMEGATL">   -200.00000000</i>
   <i type="int" name="OMEGAGRID">   140</i>
   <i name="CSHIFT">     -0.10000000</i>
   <i type="logical" name="SELFENERGY"> F  </i>
   <i type="logical" name="LSPECTRAL"> F  </i>
   <i type="logical" name="LSPECTRALGW"> F  </i>
   <i type="logical" name="LSINGLES"> F  </i>
   <i type="logical" name="LFERMIGW"> F  </i>
   <i type="logical" name="ODDONLYGW"> F  </i>
   <i type="logical" name="EVENONLYGW"> F  </i>
   <i type="int" name="NKREDLFX">     1</i>
   <i type="int" name="NKREDLFY">     1</i>
   <i type="int" name="NKREDLFZ">     1</i>
   <i type="int" name="MAXMEM">  2800</i>
   <i type="int" name="TELESCOPE">     0</i>
   <i type="int" name="TAUPAR">     1</i>
   <i type="int" name="OMEGAPAR">    -1</i>
   <i name="LAMBDA">      1.00000000</i>
  </separator>
  <separator name="External order field" >
   <i name="OFIELD_KAPPA">      0.00000000</i>
   <v name="OFIELD_K">      0.00000000      0.00000000      0.00000000</v>
   <i name="OFIELD_Q6_NEAR">      0.00000000</i>
   <i name="OFIELD_Q6_FAR">      0.00000000</i>
   <i name="OFIELD_A">      0.00000000</i>
  </separator>
 </parameters>
 <atominfo>
  <atoms>       1 </atoms>
  <types>       1 </types>
  <array name="atoms" >
   <dimension dim="1">ion</dimension>
   <field type="string">element</field>
   <field type="int">atomtype</field>
   <set>
    <rc><c>Og</c><c>   1</c></rc>
   </set>
  </array>
  <array name="atomtypes" >
   <dimension dim="1">type</dimension>
   <field type="int">atomspertype</field>
   <field type="string">element</field>
   <field>mass</field>
   <field>valence</field>
   <field type="string">pseudopotential</field>
   <set>
    <rc><c>   1</c><c>Og</c><c>      0.01000000</c><c>     18.00000000</c><c>  PAW Og, JanMewes Oct 18               </c></rc>
   </set>
  </array>
 </atominfo>
 <structure name="initialpos" >
  <crystal>
   <varray name="basis" >
    <v>       4.57977419       0.00000000       0.00000000 </v>
    <v>       2.28988709       3.96620079      -0.00000000 </v>
    <v>       2.28988709       1.32206693       3.73936997 </v>
   </varray>
   <i name="volume">     67.92305280 </i>
   <varray name="rec_basis" >
    <v>       0.21835138      -0.12606523      -0.08914158 </v>
    <v>       0.00000000       0.25213045      -0.08914158 </v>
    <v>      -0.00000000       0.00000000       0.26742473 </v>
   </varray>
  </crystal>
  <varray name="positions" >
   <v>       0.00000000       0.00000000       0.00000000 </v>
  </varray>
  <varray name="velocities" >
   <v>       0.00000000       0.00000000       0.00000000 </v>
  </varray>
 </structure>
 <calculation>
  <scstep>
   <time name="dav">    0.16    0.17</time>
   <time name="total">    0.36    0.36</time>
   <energy>
    <i name="alphaZ">     56.17027567 </i>
    <i name="ewald">  -1651.34684189 </i>
    <i name="hartreedc">   -720.46886711 </i>
    <i name="XCdc">    -67.27187671 </i>
    <i name="pawpsdc">   2266.27872487 </i>
    <i name="pawaedc">  -2184.08858500 </i>
    <i name="eentropy">     -0.00025831 </i>
    <i name="bandstr">    -38.18431971 </i>
    <i name="atom">   2642.01744135 </i>
    <i name="e_fr_energy">    303.10569316 </i>
    <i name="e_wo_entrp">    303.10595148 </i>
    <i name="e_0_energy">    303.10577927 </i>
   </energy>
  </scstep>
  <scstep>
   <time name="dav">    0.20    0.20</time>
   <time name="total">    0.20    0.20</time>
   <energy>
    <i name="e_fr_energy">     10.48744351 </i>
    <i name="e_wo_entrp">     10.48738342 </i>
    <i name="e_0_energy">     10.48742348 </i>
   </energy>
  </scstep>
  <scstep>
   <time name="dav">    0.18    0.18</time>
   <time name="total">    0.18    0.18</time>
   <energy>
    <i name="e_fr_energy">      0.07994886 </i>
    <i name="e_wo_entrp">      0.07920794 </i>
    <i name="e_0_energy">      0.07970189 </i>
   </energy>
  </scstep>
  <scstep>
   <time name="dav">    0.23    0.23</time>
   <time name="total">    0.23    0.23</time>
   <energy>
    <i name="e_fr_energy">     -0.10620675 </i>
    <i name="e_wo_entrp">     -0.10693349 </i>
    <i name="e_0_energy">     -0.10644899 </i>
   </energy>
  </scstep>
  <scstep>
   <time name="dav">    0.23    0.23</time>
   <time name="total">    0.36    0.36</time>
   <energy>
    <i name="e_fr_energy">     -0.11252202 </i>
    <i name="e_wo_entrp">     -0.11325301 </i>
    <i name="e_0_energy">     -0.11276568 </i>
   </energy>
  </scstep>
  <scstep>
   <time name="diag">    0.04    0.04</time>
   <time name="diis">    0.17    0.17</time>
   <time name="orth">    0.00    0.00</time>
   <time name="total">    0.50    0.50</time>
   <energy>
    <i name="e_fr_energy">     -0.11280035 </i>
    <i name="e_wo_entrp">     -0.11353324 </i>
    <i name="e_0_energy">     -0.11304465 </i>
   </energy>
  </scstep>
  <scstep>
   <time name="diag">    0.04    0.04</time>
   <time name="diis">    0.20    0.20</time>
   <time name="orth">    0.00    0.00</time>
   <time name="total">    0.54    0.54</time>
   <energy>
    <i name="e_fr_energy">     -0.11308850 </i>
    <i name="e_wo_entrp">     -0.11382361 </i>
    <i name="e_0_energy">     -0.11333354 </i>
   </energy>
  </scstep>
  <scstep>
   <time name="diag">    0.04    0.04</time>
   <time name="diis">    0.18    0.18</time>
   <time name="orth">    0.00    0.00</time>
   <time name="total">    0.51    0.51</time>
   <energy>
    <i name="e_fr_energy">     -0.11314073 </i>
    <i name="e_wo_entrp">     -0.11387510 </i>
    <i name="e_0_energy">     -0.11338552 </i>
   </energy>
  </scstep>
  <scstep>
   <time name="diag">    0.04    0.04</time>
   <time name="diis">    0.22    0.22</time>
   <time name="orth">    0.00    0.00</time>
   <time name="total">    0.57    0.57</time>
   <energy>
    <i name="e_fr_energy">     -0.11314737 </i>
    <i name="e_wo_entrp">     -0.11388165 </i>
    <i name="e_0_energy">     -0.11339213 </i>
   </energy>
  </scstep>
  <scstep>
   <time name="diag">    0.04    0.04</time>
   <time name="diis">    0.18    0.18</time>
   <time name="orth">    0.00    0.00</time>
   <time name="total">    0.52    0.52</time>
   <energy>
    <i name="e_fr_energy">     -0.11314938 </i>
    <i name="e_wo_entrp">     -0.11388372 </i>
    <i name="e_0_energy">     -0.11339416 </i>
   </energy>
  </scstep>
  <scstep>
   <time name="diag">    0.04    0.04</time>
   <time name="diis">    0.17    0.17</time>
   <time name="orth">    0.00    0.00</time>
   <time name="total">    0.49    0.49</time>
   <energy>
    <i name="e_fr_energy">     -0.11314939 </i>
    <i name="e_wo_entrp">     -0.11388379 </i>
    <i name="e_0_energy">     -0.11339419 </i>
   </energy>
  </scstep>
  <scstep>
   <time name="diag">    0.04    0.04</time>
   <time name="diis">    0.15    0.15</time>
   <time name="orth">    0.00    0.00</time>
   <time name="total">    0.49    0.49</time>
   <energy>
    <i name="e_fr_energy">     -0.11314960 </i>
    <i name="e_wo_entrp">     -0.11388395 </i>
    <i name="e_0_energy">     -0.11339438 </i>
   </energy>
  </scstep>
  <scstep>
   <time name="diag">    0.04    0.04</time>
   <time name="diis">    0.15    0.15</time>
   <time name="orth">    0.00    0.00</time>
   <time name="total">    0.48    0.48</time>
   <energy>
    <i name="e_fr_energy">     -0.11314949 </i>
    <i name="e_wo_entrp">     -0.11388387 </i>
    <i name="e_0_energy">     -0.11339429 </i>
   </energy>
  </scstep>
  <scstep>
   <time name="diag">    0.04    0.04</time>
   <time name="diis">    0.13    0.13</time>
   <time name="orth">    0.00    0.00</time>
   <time name="total">    0.35    0.35</time>
   <energy>
    <i name="alphaZ">     56.17027567 </i>
    <i name="ewald">  -1651.34684189 </i>
    <i name="hartreedc">   -719.08897907 </i>
    <i name="XCdc">    -67.34480820 </i>
    <i name="pawpsdc">   2254.38580797 </i>
    <i name="pawaedc">  -2172.14524816 </i>
    <i name="eentropy">      0.00073439 </i>
    <i name="bandstr">   -342.76153152 </i>
    <i name="atom">   2642.01744135 </i>
    <i name="e_fr_energy">     -0.11314946 </i>
    <i name="e_wo_entrp">     -0.11388384 </i>
    <i name="e_0_energy">     -0.11339425 </i>
   </energy>
  </scstep>
  <structure>
   <crystal>
    <varray name="basis" >
     <v>       4.57977419       0.00000000       0.00000000 </v>
     <v>       2.28988709       3.96620079      -0.00000000 </v>
     <v>       2.28988709       1.32206693       3.73936997 </v>
    </varray>
    <i name="volume">     67.92305280 </i>
    <varray name="rec_basis" >
     <v>       0.21835138      -0.12606523      -0.08914158 </v>
     <v>       0.00000000       0.25213045      -0.08914158 </v>
     <v>      -0.00000000       0.00000000       0.26742473 </v>
    </varray>
   </crystal>
   <varray name="positions" >
    <v>       0.00000000       0.00000000       0.00000000 </v>
   </varray>
  </structure>
  <varray name="forces" >
   <v>       0.00000000       0.00000000       0.00000000 </v>
  </varray>
  <varray name="stress" >
   <v>      -2.19802160      -0.00000000      -0.00000000 </v>
   <v>      -0.00000000      -2.19802160      -0.00000000 </v>
   <v>       0.00000000       0.00000000      -2.19802160 </v>
  </varray>
  <energy>
   <i name="e_fr_energy">     -0.11314946 </i>
   <i name="e_wo_entrp">     -0.11339425 </i>
   <i name="e_0_energy">      0.00073439 </i>
  </energy>
  <time name="totalsc">    8.73    8.74</time>
  <eigenvalues>
   <array>
    <dimension dim="1">band</dimension>
    <dimension dim="2">kpoint</dimension>
    <dimension dim="3">spin</dimension>
    <field>eigene</field>
    <field>occ</field>
    <set>
     <set comment="spin 1">
      <set comment="kpoint 1">
       <r>  -29.3395    1.0000 </r>
       <r>  -29.3395    1.0000 </r>
       <r>  -29.3395    1.0000 </r>
       <r>  -29.3379    1.0000 </r>
       <r>  -29.3379    1.0000 </r>
       <r>  -22.3248    1.0000 </r>
       <r>    0.2363    0.7879 </r>
       <r>    0.2363    0.7879 </r>
       <r>    0.2363    0.7879 </r>
       <r>    2.5837   -0.0000 </r>
       <r>    9.3654    0.0000 </r>
       <r>    9.3654    0.0000 </r>
       <r>    9.3656    0.0000 </r>
      </set>
      <set comment="kpoint 2">
       <r>  -29.3394    1.0000 </r>
       <r>  -29.3393    1.0000 </r>
       <r>  -29.3393    1.0000 </r>
       <r>  -29.3378    1.0000 </r>
       <r>  -29.3378    1.0000 </r>
       <r>  -22.3191    1.0000 </r>
       <r>   -0.2608    1.0000 </r>
       <r>    0.2001    0.9692 </r>
       <r>    0.2001    0.9692 </r>
       <r>    3.1872    0.0000 </r>
       <r>    8.6874    0.0000 </r>
       <r>    9.4805    0.0000 </r>
       <r>    9.4805    0.0000 </r>
      </set>
      <set comment="kpoint 3">
       <r>  -29.3390    1.0000 </r>
       <r>  -29.3390    1.0000 </r>
       <r>  -29.3390    1.0000 </r>
       <r>  -29.3374    1.0000 </r>
       <r>  -29.3374    1.0000 </r>
       <r>  -22.3044    1.0000 </r>
       <r>   -1.0590    1.0000 </r>
       <r>    0.1112    1.0223 </r>
       <r>    0.1112    1.0223 </r>
       <r>    4.1739    0.0000 </r>
       <r>    8.3944    0.0000 </r>
       <r>    9.5135    0.0000 </r>
       <r>    9.5135    0.0000 </r>
      </set>
      <set comment="kpoint 4">
       <r>  -29.3391    1.0000 </r>
       <r>  -29.3391    1.0000 </r>
       <r>  -29.3386    1.0000 </r>
       <r>  -29.3364    1.0000 </r>
       <r>  -29.3364    1.0000 </r>
       <r>  -22.2876    1.0000 </r>
       <r>   -1.6855    1.0000 </r>
       <r>    0.0146    1.0008 </r>
       <r>    0.0146    1.0008 </r>
       <r>    4.7701    0.0000 </r>
       <r>    8.9400    0.0000 </r>
       <r>    9.2121    0.0000 </r>
       <r>    9.2121    0.0000 </r>
      </set>
      <set comment="kpoint 5">
       <r>  -29.3392    1.0000 </r>
       <r>  -29.3392    1.0000 </r>
       <r>  -29.3384    1.0000 </r>
       <r>  -29.3357    1.0000 </r>
       <r>  -29.3357    1.0000 </r>
       <r>  -22.2766    1.0000 </r>
       <r>   -2.0185    1.0000 </r>
       <r>   -0.0462    1.0000 </r>
       <r>   -0.0462    1.0000 </r>
       <r>    4.9293    0.0000 </r>
       <r>    8.9921    0.0000 </r>
       <r>    8.9921    0.0000 </r>
       <r>    9.3453    0.0000 </r>
      </set>
      <set comment="kpoint 6">
       <r>  -29.3396    1.0000 </r>
       <r>  -29.3390    1.0000 </r>
       <r>  -29.3390    1.0000 </r>
       <r>  -29.3381    1.0000 </r>
       <r>  -29.3377    1.0000 </r>
       <r>  -22.3172    1.0000 </r>
       <r>   -0.2876    1.0000 </r>
       <r>    0.1229    1.0277 </r>
       <r>    0.1229    1.0277 </r>
       <r>    3.3928    0.0000 </r>
       <r>    8.4183    0.0000 </r>
       <r>    9.6323    0.0000 </r>
       <r>    9.6336    0.0000 </r>
      </set>
      <set comment="kpoint 7">
       <r>  -29.3396    1.0000 </r>
       <r>  -29.3386    1.0000 </r>
       <r>  -29.3386    1.0000 </r>
       <r>  -29.3379    1.0000 </r>
       <r>  -29.3372    1.0000 </r>
       <r>  -22.3055    1.0000 </r>
       <r>   -0.8861    1.0000 </r>
       <r>    0.0060    1.0005 </r>
       <r>    0.0387    1.0023 </r>
       <r>    4.2593    0.0000 </r>
       <r>    8.0360    0.0000 </r>
       <r>    9.1542    0.0000 </r>
       <r>    9.8420    0.0000 </r>
      </set>
      <set comment="kpoint 8">
       <r>  -29.3393    1.0000 </r>
       <r>  -29.3386    1.0000 </r>
       <r>  -29.3385    1.0000 </r>
       <r>  -29.3371    1.0000 </r>
       <r>  -29.3363    1.0000 </r>
       <r>  -22.2894    1.0000 </r>
       <r>   -1.4963    1.0000 </r>
       <r>   -0.0942    1.0000 </r>
       <r>   -0.0911    1.0000 </r>
       <r>    5.0273    0.0000 </r>
       <r>    8.2812    0.0000 </r>
       <r>    8.5372    0.0000 </r>
       <r>    9.6667    0.0000 </r>
      </set>
      <set comment="kpoint 9">
       <r>  -29.3392    1.0000 </r>
       <r>  -29.3387    1.0000 </r>
       <r>  -29.3383    1.0000 </r>
       <r>  -29.3363    1.0000 </r>
       <r>  -29.3357    1.0000 </r>
       <r>  -22.2764    1.0000 </r>
       <r>   -1.8848    1.0000 </r>
       <r>   -0.2340    1.0000 </r>
       <r>   -0.1348    1.0000 </r>
       <r>    5.3265    0.0000 </r>
       <r>    8.1679    0.0000 </r>
       <r>    9.3533    0.0000 </r>
       <r>    9.3550    0.0000 </r>
      </set>
      <set comment="kpoint 10">
       <r>  -29.3392    1.0000 </r>
       <r>  -29.3388    1.0000 </r>
       <r>  -29.3381    1.0000 </r>
       <r>  -29.3358    1.0000 </r>
       <r>  -29.3357    1.0000 </r>
       <r>  -22.2727    1.0000 </r>
       <r>   -1.9824    1.0000 </r>
       <r>   -0.3233    1.0000 </r>
       <r>   -0.1000    1.0000 </r>
       <r>    5.3769    0.0000 </r>
       <r>    8.1133    0.0000 </r>
       <r>    9.1913    0.0000 </r>
       <r>   10.0480    0.0000 </r>
      </set>
      <set comment="kpoint 11">
       <r>  -29.3390    1.0000 </r>
       <r>  -29.3387    1.0000 </r>
       <r>  -29.3384    1.0000 </r>
       <r>  -29.3365    1.0000 </r>
       <r>  -29.3359    1.0000 </r>
       <r>  -22.2801    1.0000 </r>
       <r>   -1.7785    1.0000 </r>
       <r>   -0.3172    1.0000 </r>
       <r>   -0.0035    1.0003 </r>
       <r>    5.2833    0.0000 </r>
       <r>    8.3495    0.0000 </r>
       <r>    9.0929    0.0000 </r>
       <r>    9.2557    0.0000 </r>
      </set>
      <set comment="kpoint 12">
       <r>  -29.3389    1.0000 </r>
       <r>  -29.3388    1.0000 </r>
       <r>  -29.3386    1.0000 </r>
       <r>  -29.3375    1.0000 </r>
       <r>  -29.3366    1.0000 </r>
       <r>  -22.2949    1.0000 </r>
       <r>   -1.3125    1.0000 </r>
       <r>   -0.2056    1.0000 </r>
       <r>    0.1138    1.0235 </r>
       <r>    4.8076    0.0000 </r>
       <r>    8.2728    0.0000 </r>
       <r>    8.8486    0.0000 </r>
       <r>    9.5530    0.0000 </r>
      </set>
      <set comment="kpoint 13">
       <r>  -29.3393    1.0000 </r>
       <r>  -29.3390    1.0000 </r>
       <r>  -29.3389    1.0000 </r>
       <r>  -29.3380    1.0000 </r>
       <r>  -29.3374    1.0000 </r>
       <r>  -22.3104    1.0000 </r>
       <r>   -0.7097    1.0000 </r>
       <r>   -0.0034    1.0003 </r>
       <r>    0.1963    0.9809 </r>
       <r>    3.8984    0.0000 </r>
       <r>    8.2980    0.0000 </r>
       <r>    9.4246    0.0000 </r>
       <r>    9.6369    0.0000 </r>
      </set>
      <set comment="kpoint 14">
       <r>  -29.3400    1.0000 </r>
       <r>  -29.3384    1.0000 </r>
       <r>  -29.3377    1.0000 </r>
       <r>  -29.3377    1.0000 </r>
       <r>  -29.3371    1.0000 </r>
       <r>  -22.2976    1.0000 </r>
       <r>   -1.0438    1.0000 </r>
       <r>   -0.1441    1.0000 </r>
       <r>   -0.1441    1.0000 </r>
       <r>    4.8277    0.0000 </r>
       <r>    7.5185    0.0000 </r>
       <r>    8.6907    0.0000 </r>
       <r>   10.3376    0.0000 </r>
      </set>
      <set comment="kpoint 15">
       <r>  -29.3400    1.0000 </r>
       <r>  -29.3386    1.0000 </r>
       <r>  -29.3375    1.0000 </r>
       <r>  -29.3369    1.0000 </r>
       <r>  -29.3363    1.0000 </r>
       <r>  -22.2845    1.0000 </r>
       <r>   -1.4199    1.0000 </r>
       <r>   -0.3193    1.0000 </r>
       <r>   -0.2673    1.0000 </r>
       <r>    5.4776    0.0000 </r>
       <r>    7.3887    0.0000 </r>
       <r>    8.2942    0.0000 </r>
       <r>   10.4916    0.0000 </r>
      </set>
      <set comment="kpoint 16">
       <r>  -29.3396    1.0000 </r>
       <r>  -29.3383    1.0000 </r>
       <r>  -29.3376    1.0000 </r>
       <r>  -29.3365    1.0000 </r>
       <r>  -29.3356    1.0000 </r>
       <r>  -22.2723    1.0000 </r>
       <r>   -1.7028    1.0000 </r>
       <r>   -0.5789    1.0000 </r>
       <r>   -0.3127    1.0000 </r>
       <r>    5.8989    0.0000 </r>
       <r>    7.7817    0.0000 </r>
       <r>    8.2003    0.0000 </r>
       <r>   10.2010    0.0000 </r>
      </set>
      <set comment="kpoint 17">
       <r>  -29.3394    1.0000 </r>
       <r>  -29.3378    1.0000 </r>
       <r>  -29.3377    1.0000 </r>
       <r>  -29.3364    1.0000 </r>
       <r>  -29.3357    1.0000 </r>
       <r>  -22.2666    1.0000 </r>
       <r>   -1.7865    1.0000 </r>
       <r>   -0.8164    1.0000 </r>
       <r>   -0.2634    1.0000 </r>
       <r>    6.1105    0.0000 </r>
       <r>    7.7035    0.0000 </r>
       <r>    9.3103    0.0000 </r>
       <r>    9.8997    0.0000 </r>
      </set>
      <set comment="kpoint 18">
       <r>  -29.3392    1.0000 </r>
       <r>  -29.3378    1.0000 </r>
       <r>  -29.3377    1.0000 </r>
       <r>  -29.3365    1.0000 </r>
       <r>  -29.3363    1.0000 </r>
       <r>  -22.2703    1.0000 </r>
       <r>   -1.6933    1.0000 </r>
       <r>   -0.8781    1.0000 </r>
       <r>   -0.1378    1.0000 </r>
       <r>    6.1976    0.0000 </r>
       <r>    7.7276    0.0000 </r>
       <r>    9.0741    0.0000 </r>
       <r>    9.7497    0.0000 </r>
      </set>
      <set comment="kpoint 19">
       <r>  -29.3390    1.0000 </r>
       <r>  -29.3383    1.0000 </r>
       <r>  -29.3378    1.0000 </r>
       <r>  -29.3376    1.0000 </r>
       <r>  -29.3361    1.0000 </r>
       <r>  -22.2815    1.0000 </r>
       <r>   -1.5237    1.0000 </r>
       <r>   -0.6452    1.0000 </r>
       <r>    0.0121    1.0007 </r>
       <r>    5.7475    0.0000 </r>
       <r>    8.0936    0.0000 </r>
       <r>    8.2978    0.0000 </r>
       <r>    9.7299    0.0000 </r>
      </set>
      <set comment="kpoint 20">
       <r>  -29.3405    1.0000 </r>
       <r>  -29.3388    1.0000 </r>
       <r>  -29.3365    1.0000 </r>
       <r>  -29.3361    1.0000 </r>
       <r>  -29.3361    1.0000 </r>
       <r>  -22.2753    1.0000 </r>
       <r>   -1.5806    1.0000 </r>
       <r>   -0.4193    1.0000 </r>
       <r>   -0.4193    1.0000 </r>
       <r>    5.5329    0.0000 </r>
       <r>    6.9108    0.0000 </r>
       <r>    8.8425    0.0000 </r>
       <r>   11.2845    0.0000 </r>
      </set>
      <set comment="kpoint 21">
       <r>  -29.3403    1.0000 </r>
       <r>  -29.3388    1.0000 </r>
       <r>  -29.3365    1.0000 </r>
       <r>  -29.3357    1.0000 </r>
       <r>  -29.3355    1.0000 </r>
       <r>  -22.2661    1.0000 </r>
       <r>   -1.7252    1.0000 </r>
       <r>   -0.6386    1.0000 </r>
       <r>   -0.4878    1.0000 </r>
       <r>    5.6501    0.0000 </r>
       <r>    6.9672    0.0000 </r>
       <r>    9.2045    0.0000 </r>
       <r>   11.3255    0.0000 </r>
      </set>
      <set comment="kpoint 22">
       <r>  -29.3398    1.0000 </r>
       <r>  -29.3383    1.0000 </r>
       <r>  -29.3367    1.0000 </r>
       <r>  -29.3359    1.0000 </r>
       <r>  -29.3355    1.0000 </r>
       <r>  -22.2611    1.0000 </r>
       <r>   -1.6714    1.0000 </r>
       <r>   -1.0271    1.0000 </r>
       <r>   -0.4478    1.0000 </r>
       <r>    5.9310    0.0000 </r>
       <r>    7.6328    0.0000 </r>
       <r>    9.2331    0.0000 </r>
       <r>   10.9364    0.0000 </r>
      </set>
      <set comment="kpoint 23">
       <r>  -29.3395    1.0000 </r>
       <r>  -29.3373    1.0000 </r>
       <r>  -29.3370    1.0000 </r>
       <r>  -29.3367    1.0000 </r>
       <r>  -29.3361    1.0000 </r>
       <r>  -22.2628    1.0000 </r>
       <r>   -1.4310    1.0000 </r>
       <r>   -1.3684    1.0000 </r>
       <r>   -0.3134    1.0000 </r>
       <r>    6.2728    0.0000 </r>
       <r>    8.1095    0.0000 </r>
       <r>    9.4280    0.0000 </r>
       <r>    9.8298    0.0000 </r>
      </set>
      <set comment="kpoint 24">
       <r>  -29.3408    1.0000 </r>
       <r>  -29.3391    1.0000 </r>
       <r>  -29.3360    1.0000 </r>
       <r>  -29.3352    1.0000 </r>
       <r>  -29.3352    1.0000 </r>
       <r>  -22.2607    1.0000 </r>
       <r>   -1.8455    1.0000 </r>
       <r>   -0.5856    1.0000 </r>
       <r>   -0.5856    1.0000 </r>
       <r>    5.3378    0.0000 </r>
       <r>    6.6058    0.0000 </r>
       <r>   10.6344    0.0000 </r>
       <r>   12.1550    0.0000 </r>
      </set>
      <set comment="kpoint 25">
       <r>  -29.3405    1.0000 </r>
       <r>  -29.3390    1.0000 </r>
       <r>  -29.3361    1.0000 </r>
       <r>  -29.3352    1.0000 </r>
       <r>  -29.3352    1.0000 </r>
       <r>  -22.2587    1.0000 </r>
       <r>   -1.8181    1.0000 </r>
       <r>   -0.7652    1.0000 </r>
       <r>   -0.5706    1.0000 </r>
       <r>    5.4990    0.0000 </r>
       <r>    6.8237    0.0000 </r>
       <r>   10.9897    0.0000 </r>
       <r>   11.0665    0.0000 </r>
      </set>
      <set comment="kpoint 26">
       <r>  -29.3395    1.0000 </r>
       <r>  -29.3386    1.0000 </r>
       <r>  -29.3379    1.0000 </r>
       <r>  -29.3377    1.0000 </r>
       <r>  -29.3366    1.0000 </r>
       <r>  -22.2931    1.0000 </r>
       <r>   -1.2541    1.0000 </r>
       <r>   -0.2973    1.0000 </r>
       <r>   -0.0106    1.0002 </r>
       <r>    5.0770    0.0000 </r>
       <r>    7.8064    0.0000 </r>
       <r>    8.4788    0.0000 </r>
       <r>   10.2474    0.0000 </r>
      </set>
      <set comment="kpoint 27">
       <r>  -29.3391    1.0000 </r>
       <r>  -29.3386    1.0000 </r>
       <r>  -29.3379    1.0000 </r>
       <r>  -29.3369    1.0000 </r>
       <r>  -29.3360    1.0000 </r>
       <r>  -22.2789    1.0000 </r>
       <r>   -1.6092    1.0000 </r>
       <r>   -0.5442    1.0000 </r>
       <r>   -0.1225    1.0000 </r>
       <r>    5.7930    0.0000 </r>
       <r>    7.9104    0.0000 </r>
       <r>    8.1796    0.0000 </r>
       <r>    9.9473    0.0000 </r>
      </set>
      <set comment="kpoint 28">
       <r>  -29.3391    1.0000 </r>
       <r>  -29.3385    1.0000 </r>
       <r>  -29.3377    1.0000 </r>
       <r>  -29.3364    1.0000 </r>
       <r>  -29.3357    1.0000 </r>
       <r>  -22.2696    1.0000 </r>
       <r>   -1.8189    1.0000 </r>
       <r>   -0.6630    1.0000 </r>
       <r>   -0.2205    1.0000 </r>
       <r>    6.0482    0.0000 </r>
       <r>    7.5994    0.0000 </r>
       <r>    9.2942    0.0000 </r>
       <r>    9.7617    0.0000 </r>
      </set>
      <set comment="kpoint 29">
       <r>  -29.3398    1.0000 </r>
       <r>  -29.3387    1.0000 </r>
       <r>  -29.3372    1.0000 </r>
       <r>  -29.3362    1.0000 </r>
       <r>  -29.3359    1.0000 </r>
       <r>  -22.2733    1.0000 </r>
       <r>   -1.6040    1.0000 </r>
       <r>   -0.5959    1.0000 </r>
       <r>   -0.3616    1.0000 </r>
       <r>    5.9229    0.0000 </r>
       <r>    7.3304    0.0000 </r>
       <r>    8.2084    0.0000 </r>
       <r>   10.9965    0.0000 </r>
      </set>
      <set comment="kpoint 30">
       <r>  -29.3393    1.0000 </r>
       <r>  -29.3384    1.0000 </r>
       <r>  -29.3373    1.0000 </r>
       <r>  -29.3361    1.0000 </r>
       <r>  -29.3355    1.0000 </r>
       <r>  -22.2647    1.0000 </r>
       <r>   -1.6607    1.0000 </r>
       <r>   -0.8956    1.0000 </r>
       <r>   -0.4512    1.0000 </r>
       <r>    6.3291    0.0000 </r>
       <r>    7.7350    0.0000 </r>
       <r>    8.1919    0.0000 </r>
       <r>   10.7087    0.0000 </r>
      </set>
      <set comment="kpoint 31">
       <r>  -29.3391    1.0000 </r>
       <r>  -29.3378    1.0000 </r>
       <r>  -29.3370    1.0000 </r>
       <r>  -29.3369    1.0000 </r>
       <r>  -29.3356    1.0000 </r>
       <r>  -22.2627    1.0000 </r>
       <r>   -1.5859    1.0000 </r>
       <r>   -1.1316    1.0000 </r>
       <r>   -0.4115    1.0000 </r>
       <r>    6.6499    0.0000 </r>
       <r>    7.5769    0.0000 </r>
       <r>    9.1432    0.0000 </r>
       <r>    9.7243    0.0000 </r>
      </set>
      <set comment="kpoint 32">
       <r>  -29.3389    1.0000 </r>
       <r>  -29.3383    1.0000 </r>
       <r>  -29.3375    1.0000 </r>
       <r>  -29.3362    1.0000 </r>
       <r>  -29.3362    1.0000 </r>
       <r>  -22.2683    1.0000 </r>
       <r>   -1.5935    1.0000 </r>
       <r>   -0.9888    1.0000 </r>
       <r>   -0.2679    1.0000 </r>
       <r>    6.6796    0.0000 </r>
       <r>    7.4224    0.0000 </r>
       <r>    8.3739    0.0000 </r>
       <r>   10.3397    0.0000 </r>
      </set>
      <set comment="kpoint 33">
       <r>  -29.3401    1.0000 </r>
       <r>  -29.3388    1.0000 </r>
       <r>  -29.3364    1.0000 </r>
       <r>  -29.3357    1.0000 </r>
       <r>  -29.3352    1.0000 </r>
       <r>  -22.2604    1.0000 </r>
       <r>   -1.7449    1.0000 </r>
       <r>   -0.7747    1.0000 </r>
       <r>   -0.6200    1.0000 </r>
       <r>    5.7958    0.0000 </r>
       <r>    7.0703    0.0000 </r>
       <r>    9.5384    0.0000 </r>
       <r>   11.1550    0.0000 </r>
      </set>
      <set comment="kpoint 34">
       <r>  -29.3394    1.0000 </r>
       <r>  -29.3383    1.0000 </r>
       <r>  -29.3366    1.0000 </r>
       <r>  -29.3365    1.0000 </r>
       <r>  -29.3352    1.0000 </r>
       <r>  -22.2591    1.0000 </r>
       <r>   -1.5887    1.0000 </r>
       <r>   -1.1093    1.0000 </r>
       <r>   -0.5869    1.0000 </r>
       <r>    6.2348    0.0000 </r>
       <r>    7.7319    0.0000 </r>
       <r>    9.1816    0.0000 </r>
       <r>    9.8239    0.0000 </r>
      </set>
      <set comment="kpoint 35">
       <r>  -29.3385    1.0000 </r>
       <r>  -29.3384    1.0000 </r>
       <r>  -29.3374    1.0000 </r>
       <r>  -29.3366    1.0000 </r>
       <r>  -29.3352    1.0000 </r>
       <r>  -22.2598    1.0000 </r>
       <r>   -1.4725    1.0000 </r>
       <r>   -1.1908    1.0000 </r>
       <r>   -0.6442    1.0000 </r>
       <r>    6.9518    0.0000 </r>
       <r>    7.8361    0.0000 </r>
       <r>    8.2784    0.0000 </r>
       <r>    9.4969    0.0000 </r>
      </set>
     </set>
    </set>
   </array>
  </eigenvalues>
  <separator name="orbital magnetization" >
   <v name="MAGDIPOLOUT">      0.00000000      0.00000000      0.00000000</v>
  </separator>
  <dos>
   <i name="efermi">      0.27292977 </i>
   <total>
    <array>
     <dimension dim="1">gridpoints</dimension>
     <dimension dim="2">spin</dimension>
     <field>energy</field>
     <field>total</field>
     <field>integrated</field>
     <set>
      <set comment="spin 1">
       <r>   -31.4155     0.0000     0.0000 </r>
       <r>   -31.2634     0.0000     0.0000 </r>
       <r>   -31.1112     0.0000     0.0000 </r>
       <r>   -30.9591     0.0000     0.0000 </r>
       <r>   -30.8069     0.0000     0.0000 </r>
       <r>   -30.6548     0.0000     0.0000 </r>
       <r>   -30.5026     0.0000     0.0000 </r>
       <r>   -30.3505     0.0000     0.0000 </r>
       <r>   -30.1983    -0.0000    -0.0000 </r>
       <r>   -30.0462    -0.0000    -0.0000 </r>
       <r>   -29.8940    -0.0000    -0.0000 </r>
       <r>   -29.7419    -0.0000    -0.0000 </r>
       <r>   -29.5897    -0.0693    -0.0105 </r>
       <r>   -29.4376    -1.5768    -0.2505 </r>
       <r>   -29.2854    59.5957     8.8171 </r>
       <r>   -29.1333     8.2307    10.0694 </r>
       <r>   -28.9811    -0.4559    10.0000 </r>
       <r>   -28.8290    -0.0002    10.0000 </r>
       <r>   -28.6768    -0.0000    10.0000 </r>
       <r>   -28.5247     0.0000    10.0000 </r>
       <r>   -28.3725     0.0000    10.0000 </r>
       <r>   -28.2204     0.0000    10.0000 </r>
       <r>   -28.0682     0.0000    10.0000 </r>
       <r>   -27.9161     0.0000    10.0000 </r>
       <r>   -27.7639     0.0000    10.0000 </r>
       <r>   -27.6118     0.0000    10.0000 </r>
       <r>   -27.4596     0.0000    10.0000 </r>
       <r>   -27.3075     0.0000    10.0000 </r>
       <r>   -27.1553     0.0000    10.0000 </r>
       <r>   -27.0032     0.0000    10.0000 </r>
       <r>   -26.8510     0.0000    10.0000 </r>
       <r>   -26.6989     0.0000    10.0000 </r>
       <r>   -26.5467     0.0000    10.0000 </r>
       <r>   -26.3946     0.0000    10.0000 </r>
       <r>   -26.2424     0.0000    10.0000 </r>
       <r>   -26.0903     0.0000    10.0000 </r>
       <r>   -25.9381     0.0000    10.0000 </r>
       <r>   -25.7860     0.0000    10.0000 </r>
       <r>   -25.6338     0.0000    10.0000 </r>
       <r>   -25.4817     0.0000    10.0000 </r>
       <r>   -25.3295     0.0000    10.0000 </r>
       <r>   -25.1773     0.0000    10.0000 </r>
       <r>   -25.0252     0.0000    10.0000 </r>
       <r>   -24.8730     0.0000    10.0000 </r>
       <r>   -24.7209     0.0000    10.0000 </r>
       <r>   -24.5687     0.0000    10.0000 </r>
       <r>   -24.4166     0.0000    10.0000 </r>
       <r>   -24.2644     0.0000    10.0000 </r>
       <r>   -24.1123     0.0000    10.0000 </r>
       <r>   -23.9601     0.0000    10.0000 </r>
       <r>   -23.8080     0.0000    10.0000 </r>
       <r>   -23.6558     0.0000    10.0000 </r>
       <r>   -23.5037     0.0000    10.0000 </r>
       <r>   -23.3515     0.0000    10.0000 </r>
       <r>   -23.1994    -0.0000    10.0000 </r>
       <r>   -23.0472    -0.0000    10.0000 </r>
       <r>   -22.8951    -0.0000    10.0000 </r>
       <r>   -22.7429    -0.0000    10.0000 </r>
       <r>   -22.5908    -0.0008     9.9999 </r>
       <r>   -22.4386    -0.2802     9.9573 </r>
       <r>   -22.2865     5.6298    10.8138 </r>
       <r>   -22.1343     8.1985    12.0612 </r>
       <r>   -21.9822    -0.4003    12.0003 </r>
       <r>   -21.8300    -0.0022    12.0000 </r>
       <r>   -21.6779    -0.0000    12.0000 </r>
       <r>   -21.5257    -0.0000    12.0000 </r>
       <r>   -21.3736     0.0000    12.0000 </r>
       <r>   -21.2214     0.0000    12.0000 </r>
       <r>   -21.0693     0.0000    12.0000 </r>
       <r>   -20.9171     0.0000    12.0000 </r>
       <r>   -20.7650     0.0000    12.0000 </r>
       <r>   -20.6128     0.0000    12.0000 </r>
       <r>   -20.4607     0.0000    12.0000 </r>
       <r>   -20.3085     0.0000    12.0000 </r>
       <r>   -20.1564     0.0000    12.0000 </r>
       <r>   -20.0042     0.0000    12.0000 </r>
       <r>   -19.8521     0.0000    12.0000 </r>
       <r>   -19.6999     0.0000    12.0000 </r>
       <r>   -19.5478     0.0000    12.0000 </r>
       <r>   -19.3956     0.0000    12.0000 </r>
       <r>   -19.2435     0.0000    12.0000 </r>
       <r>   -19.0913     0.0000    12.0000 </r>
       <r>   -18.9392     0.0000    12.0000 </r>
       <r>   -18.7870     0.0000    12.0000 </r>
       <r>   -18.6348     0.0000    12.0000 </r>
       <r>   -18.4827     0.0000    12.0000 </r>
       <r>   -18.3305     0.0000    12.0000 </r>
       <r>   -18.1784     0.0000    12.0000 </r>
       <r>   -18.0262     0.0000    12.0000 </r>
       <r>   -17.8741     0.0000    12.0000 </r>
       <r>   -17.7219     0.0000    12.0000 </r>
       <r>   -17.5698     0.0000    12.0000 </r>
       <r>   -17.4176     0.0000    12.0000 </r>
       <r>   -17.2655     0.0000    12.0000 </r>
       <r>   -17.1133     0.0000    12.0000 </r>
       <r>   -16.9612     0.0000    12.0000 </r>
       <r>   -16.8090     0.0000    12.0000 </r>
       <r>   -16.6569     0.0000    12.0000 </r>
       <r>   -16.5047     0.0000    12.0000 </r>
       <r>   -16.3526     0.0000    12.0000 </r>
       <r>   -16.2004     0.0000    12.0000 </r>
       <r>   -16.0483     0.0000    12.0000 </r>
       <r>   -15.8961     0.0000    12.0000 </r>
       <r>   -15.7440     0.0000    12.0000 </r>
       <r>   -15.5918     0.0000    12.0000 </r>
       <r>   -15.4397     0.0000    12.0000 </r>
       <r>   -15.2875     0.0000    12.0000 </r>
       <r>   -15.1354     0.0000    12.0000 </r>
       <r>   -14.9832     0.0000    12.0000 </r>
       <r>   -14.8311     0.0000    12.0000 </r>
       <r>   -14.6789     0.0000    12.0000 </r>
       <r>   -14.5268     0.0000    12.0000 </r>
       <r>   -14.3746     0.0000    12.0000 </r>
       <r>   -14.2225     0.0000    12.0000 </r>
       <r>   -14.0703     0.0000    12.0000 </r>
       <r>   -13.9182     0.0000    12.0000 </r>
       <r>   -13.7660     0.0000    12.0000 </r>
       <r>   -13.6139     0.0000    12.0000 </r>
       <r>   -13.4617     0.0000    12.0000 </r>
       <r>   -13.3096     0.0000    12.0000 </r>
       <r>   -13.1574     0.0000    12.0000 </r>
       <r>   -13.0053     0.0000    12.0000 </r>
       <r>   -12.8531     0.0000    12.0000 </r>
       <r>   -12.7010     0.0000    12.0000 </r>
       <r>   -12.5488     0.0000    12.0000 </r>
       <r>   -12.3967     0.0000    12.0000 </r>
       <r>   -12.2445     0.0000    12.0000 </r>
       <r>   -12.0924     0.0000    12.0000 </r>
       <r>   -11.9402     0.0000    12.0000 </r>
       <r>   -11.7880     0.0000    12.0000 </r>
       <r>   -11.6359     0.0000    12.0000 </r>
       <r>   -11.4837     0.0000    12.0000 </r>
       <r>   -11.3316     0.0000    12.0000 </r>
       <r>   -11.1794     0.0000    12.0000 </r>
       <r>   -11.0273     0.0000    12.0000 </r>
       <r>   -10.8751     0.0000    12.0000 </r>
       <r>   -10.7230     0.0000    12.0000 </r>
       <r>   -10.5708     0.0000    12.0000 </r>
       <r>   -10.4187     0.0000    12.0000 </r>
       <r>   -10.2665     0.0000    12.0000 </r>
       <r>   -10.1144     0.0000    12.0000 </r>
       <r>    -9.9622     0.0000    12.0000 </r>
       <r>    -9.8101     0.0000    12.0000 </r>
       <r>    -9.6579     0.0000    12.0000 </r>
       <r>    -9.5058     0.0000    12.0000 </r>
       <r>    -9.3536     0.0000    12.0000 </r>
       <r>    -9.2015     0.0000    12.0000 </r>
       <r>    -9.0493     0.0000    12.0000 </r>
       <r>    -8.8972     0.0000    12.0000 </r>
       <r>    -8.7450     0.0000    12.0000 </r>
       <r>    -8.5929     0.0000    12.0000 </r>
       <r>    -8.4407     0.0000    12.0000 </r>
       <r>    -8.2886     0.0000    12.0000 </r>
       <r>    -8.1364     0.0000    12.0000 </r>
       <r>    -7.9843     0.0000    12.0000 </r>
       <r>    -7.8321     0.0000    12.0000 </r>
       <r>    -7.6800     0.0000    12.0000 </r>
       <r>    -7.5278     0.0000    12.0000 </r>
       <r>    -7.3757     0.0000    12.0000 </r>
       <r>    -7.2235     0.0000    12.0000 </r>
       <r>    -7.0714     0.0000    12.0000 </r>
       <r>    -6.9192     0.0000    12.0000 </r>
       <r>    -6.7671     0.0000    12.0000 </r>
       <r>    -6.6149     0.0000    12.0000 </r>
       <r>    -6.4628     0.0000    12.0000 </r>
       <r>    -6.3106     0.0000    12.0000 </r>
       <r>    -6.1585     0.0000    12.0000 </r>
       <r>    -6.0063     0.0000    12.0000 </r>
       <r>    -5.8542     0.0000    12.0000 </r>
       <r>    -5.7020     0.0000    12.0000 </r>
       <r>    -5.5499     0.0000    12.0000 </r>
       <r>    -5.3977     0.0000    12.0000 </r>
       <r>    -5.2455     0.0000    12.0000 </r>
       <r>    -5.0934     0.0000    12.0000 </r>
       <r>    -4.9412     0.0000    12.0000 </r>
       <r>    -4.7891     0.0000    12.0000 </r>
       <r>    -4.6369     0.0000    12.0000 </r>
       <r>    -4.4848     0.0000    12.0000 </r>
       <r>    -4.3326     0.0000    12.0000 </r>
       <r>    -4.1805     0.0000    12.0000 </r>
       <r>    -4.0283     0.0000    12.0000 </r>
       <r>    -3.8762     0.0000    12.0000 </r>
       <r>    -3.7240     0.0000    12.0000 </r>
       <r>    -3.5719     0.0000    12.0000 </r>
       <r>    -3.4197     0.0000    12.0000 </r>
       <r>    -3.2676     0.0000    12.0000 </r>
       <r>    -3.1154     0.0000    12.0000 </r>
       <r>    -2.9633    -0.0000    12.0000 </r>
       <r>    -2.8111    -0.0000    12.0000 </r>
       <r>    -2.6590    -0.0000    12.0000 </r>
       <r>    -2.5068    -0.0000    12.0000 </r>
       <r>    -2.3547    -0.0000    12.0000 </r>
       <r>    -2.2025    -0.0036    11.9995 </r>
       <r>    -2.0504     0.0465    12.0065 </r>
       <r>    -1.8982     0.6720    12.1088 </r>
       <r>    -1.7461     2.5583    12.4980 </r>
       <r>    -1.5939     4.5758    13.1942 </r>
       <r>    -1.4418     2.7515    13.6129 </r>
       <r>    -1.2896     1.1058    13.7811 </r>
       <r>    -1.1375     1.3689    13.9894 </r>
       <r>    -0.9853     1.6672    14.2431 </r>
       <r>    -0.8332     2.0292    14.5518 </r>
       <r>    -0.6810     1.7516    14.8183 </r>
       <r>    -0.5289     4.1362    15.4477 </r>
       <r>    -0.3767     3.2091    15.9359 </r>
       <r>    -0.2246     4.8462    16.6733 </r>
       <r>    -0.0724     4.0899    17.2956 </r>
       <r>     0.0797     3.2499    17.7901 </r>
       <r>     0.2319     1.2749    17.9840 </r>
       <r>     0.3840     0.1132    18.0013 </r>
       <r>     0.5362    -0.0083    18.0000 </r>
       <r>     0.6883    -0.0000    18.0000 </r>
       <r>     0.8405    -0.0000    18.0000 </r>
       <r>     0.9926    -0.0000    18.0000 </r>
       <r>     1.1448     0.0000    18.0000 </r>
       <r>     1.2969     0.0000    18.0000 </r>
       <r>     1.4491     0.0000    18.0000 </r>
       <r>     1.6013     0.0000    18.0000 </r>
       <r>     1.7534    -0.0000    18.0000 </r>
       <r>     1.9056    -0.0000    18.0000 </r>
       <r>     2.0577    -0.0000    18.0000 </r>
       <r>     2.2099    -0.0000    18.0000 </r>
       <r>     2.3620    -0.0001    18.0000 </r>
       <r>     2.5142     0.0008    18.0001 </r>
       <r>     2.6663     0.0172    18.0027 </r>
       <r>     2.8185     0.0001    18.0027 </r>
       <r>     2.9706    -0.0007    18.0026 </r>
       <r>     3.1228     0.0094    18.0041 </r>
       <r>     3.2749     0.1327    18.0243 </r>
       <r>     3.4271     0.0865    18.0374 </r>
       <r>     3.5792     0.0258    18.0414 </r>
       <r>     3.7314    -0.0056    18.0405 </r>
       <r>     3.8835     0.0855    18.0535 </r>
       <r>     4.0357     0.1360    18.0742 </r>
       <r>     4.1878     0.1033    18.0899 </r>
       <r>     4.3400     0.4722    18.1618 </r>
       <r>     4.4921     0.0016    18.1620 </r>
       <r>     4.6443    -0.0168    18.1595 </r>
       <r>     4.7964     0.3155    18.2074 </r>
       <r>     4.9486     0.4909    18.2821 </r>
       <r>     5.1007     0.7548    18.3970 </r>
       <r>     5.2529     0.2634    18.4371 </r>
       <r>     5.4050     1.1841    18.6172 </r>
       <r>     5.5572     0.8054    18.7398 </r>
       <r>     5.7093     0.4952    18.8151 </r>
       <r>     5.8615     1.5871    19.0566 </r>
       <r>     6.0136     1.4265    19.2737 </r>
       <r>     6.1658     1.1832    19.4537 </r>
       <r>     6.3179     1.3290    19.6559 </r>
       <r>     6.4701     0.5422    19.7384 </r>
       <r>     6.6222     0.3339    19.7892 </r>
       <r>     6.7744     1.1162    19.9590 </r>
       <r>     6.9265     0.4305    20.0245 </r>
       <r>     7.0787     0.9828    20.1740 </r>
       <r>     7.2308     0.1391    20.1952 </r>
       <r>     7.3830     0.6606    20.2957 </r>
       <r>     7.5351     0.9266    20.4367 </r>
       <r>     7.6873     2.3836    20.7994 </r>
       <r>     7.8394     2.8311    21.2301 </r>
       <r>     7.9916     1.1382    21.4033 </r>
       <r>     8.1438     1.5361    21.6370 </r>
       <r>     8.2959     4.1765    22.2725 </r>
       <r>     8.4481     1.9784    22.5735 </r>
       <r>     8.6002     0.7444    22.6867 </r>
       <r>     8.7524     0.2381    22.7230 </r>
       <r>     8.9045     0.5323    22.8040 </r>
       <r>     9.0567     0.6290    22.8997 </r>
       <r>     9.2088     3.0456    23.3631 </r>
       <r>     9.3610     3.2560    23.8585 </r>
       <r>     9.5131     1.7955    24.1317 </r>
       <r>     9.6653     1.6561    24.3836 </r>
       <r>     9.8174     2.9223    24.8283 </r>
       <r>     9.9696     1.8323    25.1071 </r>
       <r>    10.1217     0.6673    25.2086 </r>
       <r>    10.2739     0.7681    25.3255 </r>
       <r>    10.4260     0.6812    25.4291 </r>
       <r>    10.5782     0.3822    25.4872 </r>
       <r>    10.7303     0.7115    25.5955 </r>
       <r>    10.8825     0.3159    25.6436 </r>
       <r>    11.0346     0.9701    25.7912 </r>
       <r>    11.1868     0.6155    25.8848 </r>
       <r>    11.3389     0.4753    25.9571 </r>
       <r>    11.4911     0.1831    25.9850 </r>
       <r>    11.6432    -0.0096    25.9835 </r>
       <r>    11.7954    -0.0000    25.9835 </r>
       <r>    11.9475    -0.0007    25.9834 </r>
       <r>    12.0997     0.0117    25.9852 </r>
       <r>    12.2518     0.0995    26.0004 </r>
       <r>    12.4040    -0.0022    26.0000 </r>
       <r>    12.5561    -0.0001    26.0000 </r>
       <r>    12.7083    -0.0000    26.0000 </r>
       <r>    12.8604    -0.0000    26.0000 </r>
       <r>    13.0126     0.0000    26.0000 </r>
       <r>    13.1647     0.0000    26.0000 </r>
       <r>    13.3169     0.0000    26.0000 </r>
       <r>    13.4690     0.0000    26.0000 </r>
       <r>    13.6212     0.0000    26.0000 </r>
       <r>    13.7733     0.0000    26.0000 </r>
       <r>    13.9255     0.0000    26.0000 </r>
       <r>    14.0776     0.0000    26.0000 </r>
       <r>    14.2298     0.0000    26.0000 </r>
      </set>
     </set>
    </array>
   </total>
  </dos>
 </calculation>
 <structure name="finalpos" >
  <crystal>
   <varray name="basis" >
    <v>       4.57977419       0.00000000       0.00000000 </v>
    <v>       2.28988709       3.96620079      -0.00000000 </v>
    <v>       2.28988709       1.32206693       3.73936997 </v>
   </varray>
   <i name="volume">     67.92305280 </i>
   <varray name="rec_basis" >
    <v>       0.21835138      -0.12606523      -0.08914158 </v>
    <v>       0.00000000       0.25213045      -0.08914158 </v>
    <v>      -0.00000000       0.00000000       0.26742473 </v>
   </varray>
  </crystal>
  <varray name="positions" >
   <v>       0.00000000       0.00000000       0.00000000 </v>
  </varray>
  <varray name="velocities" >
   <v>       0.00000000       0.00000000       0.00000000 </v>
  </varray>
 </structure>
</modeling>
