Og_FCC                                  
           1
     4.342346    0.000000    0.000000
     2.171173    3.760582   -0.000000
     2.171173    1.253527    3.545511
   Og
   1
Direct configuration=     1
   0.00000000  0.00000000  0.00000000
Og_FCC                                  
           1
     4.343948    0.000000    0.000000
     2.171974    3.761969   -0.000000
     2.171974    1.253990    3.546819
   Og
   1
Direct configuration=     2
   0.00000000  0.00000000  0.00000000
Og_FCC                                  
           1
     4.349400    0.000000    0.000000
     2.174700    3.766691   -0.000000
     2.174700    1.255564    3.551270
   Og
   1
Direct configuration=     3
   0.00000000  0.00000000  0.00000000
Og_FCC                                  
           1
     4.347751    0.000000    0.000000
     2.173875    3.765263   -0.000000
     2.173875    1.255088    3.549924
   Og
   1
Direct configuration=     4
   0.00000000  0.00000000  0.00000000
Og_FCC                                  
           1
     4.348825    0.000000    0.000000
     2.174413    3.766193   -0.000000
     2.174413    1.255398    3.550801
   Og
   1
Direct configuration=     5
   0.00000000  0.00000000  0.00000000
Og_FCC                                  
           1
     4.351240    0.000000    0.000000
     2.175620    3.768285   -0.000000
     2.175620    1.256095    3.552773
   Og
   1
Direct configuration=     6
   0.00000000  0.00000000  0.00000000
Og_FCC                                  
           1
     4.353838    0.000000    0.000000
     2.176919    3.770534   -0.000000
     2.176919    1.256845    3.554893
   Og
   1
Direct configuration=     7
   0.00000000  0.00000000  0.00000000
