   1   1   0   0
  0.5789729E+02  0.4342346E-09  0.4342346E-09  0.4342346E-09  0.1000000E-15
  1.000000000000000E-004
  CAR 
 Og_FCC                                  
     97.51626467    -34.04627813  301      2.02378569      1.00000000
    -34.046  0.0000E+00  0.0000E+00
    -33.608  0.0000E+00  0.0000E+00
    -33.169  0.0000E+00  0.0000E+00
    -32.731  0.0000E+00  0.0000E+00
    -32.292  0.0000E+00  0.0000E+00
    -31.854  0.0000E+00  0.0000E+00
    -31.415  0.0000E+00  0.0000E+00
    -30.976  0.0000E+00  0.0000E+00
    -30.538  0.0000E+00  0.0000E+00
    -30.099  0.0000E+00  0.0000E+00
    -29.661  0.0000E+00  0.0000E+00
    -29.222  0.0000E+00  0.0000E+00
    -28.784  0.0000E+00  0.0000E+00
    -28.345  0.0000E+00  0.0000E+00
    -27.907  0.0000E+00  0.1000E+02
    -27.468  0.0000E+00  0.1000E+02
    -27.030  0.0000E+00  0.1000E+02
    -26.591  0.0000E+00  0.1000E+02
    -26.153  0.0000E+00  0.1000E+02
    -25.714  0.0000E+00  0.1000E+02
    -25.275  0.0000E+00  0.1000E+02
    -24.837  0.0000E+00  0.1000E+02
    -24.398  0.0000E+00  0.1000E+02
    -23.960  0.0000E+00  0.1000E+02
    -23.521  0.0000E+00  0.1000E+02
    -23.083  0.0000E+00  0.1000E+02
    -22.644  0.0000E+00  0.1000E+02
    -22.206  0.0000E+00  0.1000E+02
    -21.767  0.0000E+00  0.1000E+02
    -21.329  0.0000E+00  0.1000E+02
    -20.890  0.0000E+00  0.1200E+02
    -20.451  0.0000E+00  0.1200E+02
    -20.013  0.0000E+00  0.1200E+02
    -19.574  0.0000E+00  0.1200E+02
    -19.136  0.0000E+00  0.1200E+02
    -18.697  0.0000E+00  0.1200E+02
    -18.259  0.0000E+00  0.1200E+02
    -17.820  0.0000E+00  0.1200E+02
    -17.382  0.0000E+00  0.1200E+02
    -16.943  0.0000E+00  0.1200E+02
    -16.505  0.0000E+00  0.1200E+02
    -16.066  0.0000E+00  0.1200E+02
    -15.628  0.0000E+00  0.1200E+02
    -15.189  0.0000E+00  0.1200E+02
    -14.750  0.0000E+00  0.1200E+02
    -14.312  0.0000E+00  0.1200E+02
    -13.873  0.0000E+00  0.1200E+02
    -13.435  0.0000E+00  0.1200E+02
    -12.996  0.0000E+00  0.1200E+02
    -12.558  0.0000E+00  0.1200E+02
    -12.119  0.0000E+00  0.1200E+02
    -11.681  0.0000E+00  0.1200E+02
    -11.242  0.0000E+00  0.1200E+02
    -10.804  0.0000E+00  0.1200E+02
    -10.365  0.0000E+00  0.1200E+02
     -9.926  0.0000E+00  0.1200E+02
     -9.488  0.0000E+00  0.1200E+02
     -9.049  0.0000E+00  0.1200E+02
     -8.611  0.0000E+00  0.1200E+02
     -8.172  0.0000E+00  0.1200E+02
     -7.734  0.0000E+00  0.1200E+02
     -7.295  0.0000E+00  0.1200E+02
     -6.857  0.0000E+00  0.1200E+02
     -6.418  0.0000E+00  0.1200E+02
     -5.980  0.0000E+00  0.1200E+02
     -5.541  0.0000E+00  0.1200E+02
     -5.103  0.0000E+00  0.1200E+02
     -4.664  0.0000E+00  0.1200E+02
     -4.225  0.0000E+00  0.1200E+02
     -3.787  0.0000E+00  0.1200E+02
     -3.348  0.0000E+00  0.1200E+02
     -2.910  0.0000E+00  0.1200E+02
     -2.471  0.0000E+00  0.1200E+02
     -2.033  0.0000E+00  0.1200E+02
     -1.594  0.0000E+00  0.1200E+02
     -1.156  0.0000E+00  0.1204E+02
     -0.717  0.0000E+00  0.1281E+02
     -0.279  0.0000E+00  0.1386E+02
      0.160  0.0000E+00  0.1431E+02
      0.599  0.0000E+00  0.1499E+02
      1.037  0.0000E+00  0.1605E+02
      1.476  0.0000E+00  0.1745E+02
      1.914  0.0000E+00  0.1800E+02
      2.353  0.0000E+00  0.1800E+02
      2.791  0.0000E+00  0.1800E+02
      3.230  0.0000E+00  0.1800E+02
      3.668  0.0000E+00  0.1800E+02
      4.107  0.0000E+00  0.1801E+02
      4.545  0.0000E+00  0.1801E+02
      4.984  0.0000E+00  0.1801E+02
      5.422  0.0000E+00  0.1808E+02
      5.861  0.0000E+00  0.1814E+02
      6.300  0.8445E-01  0.1825E+02
      6.738  0.0000E+00  0.1839E+02
      7.177  0.0000E+00  0.1889E+02
      7.615  0.0000E+00  0.1944E+02
      8.054  0.0000E+00  0.1981E+02
      8.492  0.0000E+00  0.1986E+02
      8.931  0.0000E+00  0.2053E+02
      9.369  0.0000E+00  0.2158E+02
      9.808  0.0000E+00  0.2214E+02
     10.246  0.0000E+00  0.2232E+02
     10.685  0.0000E+00  0.2251E+02
     11.124  0.0000E+00  0.2369E+02
     11.562  0.0000E+00  0.2514E+02
     12.001  0.0000E+00  0.2569E+02
     12.439  0.0000E+00  0.2588E+02
     12.878  0.0000E+00  0.2625E+02
     13.316  0.0000E+00  0.2773E+02
     13.755  0.0000E+00  0.2863E+02
     14.193  0.0000E+00  0.2953E+02
     14.632  0.0000E+00  0.3049E+02
     15.070  0.0000E+00  0.3121E+02
     15.509  0.0000E+00  0.3160E+02
     15.947  0.0000E+00  0.3236E+02
     16.386  0.2534E+00  0.3340E+02
     16.825  0.0000E+00  0.3431E+02
     17.263  0.0000E+00  0.3489E+02
     17.702  0.0000E+00  0.3619E+02
     18.140  0.0000E+00  0.3801E+02
     18.579  0.0000E+00  0.4070E+02
     19.017  0.0000E+00  0.4145E+02
     19.456  0.0000E+00  0.4297E+02
     19.894  0.0000E+00  0.4368E+02
     20.333  0.0000E+00  0.4511E+02
     20.771  0.0000E+00  0.4567E+02
     21.210  0.0000E+00  0.4611E+02
     21.649  0.0000E+00  0.4619E+02
     22.087  0.0000E+00  0.4641E+02
     22.526  0.0000E+00  0.4699E+02
     22.964  0.0000E+00  0.4838E+02
     23.403  0.0000E+00  0.4888E+02
     23.841  0.0000E+00  0.4943E+02
     24.280  0.0000E+00  0.5083E+02
     24.718  0.0000E+00  0.5211E+02
     25.157  0.5067E+00  0.5411E+02
     25.595  0.0000E+00  0.5606E+02
     26.034  0.0000E+00  0.5671E+02
     26.472  0.0000E+00  0.5746E+02
     26.911  0.0000E+00  0.5798E+02
     27.350  0.0000E+00  0.5860E+02
     27.788  0.1267E+00  0.5982E+02
     28.227  0.0000E+00  0.6027E+02
     28.665  0.2534E+00  0.6156E+02
     29.104  0.0000E+00  0.6201E+02
     29.542  0.0000E+00  0.6269E+02
     29.981  0.0000E+00  0.6433E+02
     30.419  0.0000E+00  0.6470E+02
     30.858  0.0000E+00  0.6534E+02
     31.296  0.0000E+00  0.6679E+02
     31.735  0.5067E+00  0.6791E+02
     32.174  0.0000E+00  0.6939E+02
     32.612  0.0000E+00  0.7120E+02
     33.051  0.0000E+00  0.7221E+02
     33.489  0.0000E+00  0.7297E+02
     33.928  0.3371E-01  0.7362E+02
     34.366  0.0000E+00  0.7453E+02
     34.805  0.0000E+00  0.7564E+02
     35.243  0.0000E+00  0.7692E+02
     35.682  0.0000E+00  0.7828E+02
     36.120  0.0000E+00  0.7980E+02
     36.559  0.0000E+00  0.8092E+02
     36.997  0.0000E+00  0.8221E+02
     37.436  0.2529E+00  0.8343E+02
     37.875  0.0000E+00  0.8416E+02
     38.313  0.0000E+00  0.8438E+02
     38.752  0.0000E+00  0.8508E+02
     39.190  0.0000E+00  0.8669E+02
     39.629  0.0000E+00  0.8845E+02
     40.067  0.0000E+00  0.8916E+02
     40.506  0.0000E+00  0.8980E+02
     40.944  0.0000E+00  0.9143E+02
     41.383  0.1520E+00  0.9296E+02
     41.821  0.0000E+00  0.9438E+02
     42.260  0.0000E+00  0.9542E+02
     42.699  0.0000E+00  0.9676E+02
     43.137  0.0000E+00  0.9773E+02
     43.576  0.0000E+00  0.9849E+02
     44.014  0.0000E+00  0.9998E+02
     44.453  0.0000E+00  0.1007E+03
     44.891  0.0000E+00  0.1015E+03
     45.330  0.3839E+00  0.1034E+03
     45.768  0.0000E+00  0.1049E+03
     46.207  0.0000E+00  0.1058E+03
     46.645  0.0000E+00  0.1073E+03
     47.084  0.2111E-01  0.1080E+03
     47.522  0.0000E+00  0.1103E+03
     47.961  0.0000E+00  0.1109E+03
     48.400  0.6958E-07  0.1126E+03
     48.838  0.0000E+00  0.1137E+03
     49.277  0.0000E+00  0.1148E+03
     49.715  0.0000E+00  0.1160E+03
     50.154  0.0000E+00  0.1170E+03
     50.592  0.0000E+00  0.1188E+03
     51.031  0.2650E-02  0.1198E+03
     51.469  0.0000E+00  0.1212E+03
     51.908  0.0000E+00  0.1227E+03
     52.346  0.0000E+00  0.1248E+03
     52.785  0.0000E+00  0.1265E+03
     53.224  0.0000E+00  0.1270E+03
     53.662  0.0000E+00  0.1275E+03
     54.101  0.0000E+00  0.1292E+03
     54.539  0.0000E+00  0.1307E+03
     54.978  0.0000E+00  0.1323E+03
     55.416  0.0000E+00  0.1334E+03
     55.855  0.4318E+00  0.1349E+03
     56.293  0.0000E+00  0.1370E+03
     56.732  0.2163E-04  0.1375E+03
     57.170  0.6166E-01  0.1386E+03
     57.609  0.5067E+00  0.1397E+03
     58.048  0.0000E+00  0.1417E+03
     58.486  0.0000E+00  0.1429E+03
     58.925  0.0000E+00  0.1437E+03
     59.363  0.0000E+00  0.1455E+03
     59.802  0.0000E+00  0.1473E+03
     60.240  0.0000E+00  0.1491E+03
     60.679  0.0000E+00  0.1498E+03
     61.117  0.2270E-01  0.1507E+03
     61.556  0.5752E-01  0.1524E+03
     61.994  0.0000E+00  0.1537E+03
     62.433  0.2534E+00  0.1559E+03
     62.871  0.0000E+00  0.1568E+03
     63.310  0.0000E+00  0.1581E+03
     63.749  0.3378E+00  0.1594E+03
     64.187  0.0000E+00  0.1610E+03
     64.626  0.1946E-01  0.1630E+03
     65.064  0.5067E+00  0.1645E+03
     65.503  0.0000E+00  0.1659E+03
     65.941  0.4065E-01  0.1679E+03
     66.380  0.0000E+00  0.1689E+03
     66.818  0.0000E+00  0.1704E+03
     67.257  0.0000E+00  0.1719E+03
     67.695  0.0000E+00  0.1731E+03
     68.134  0.0000E+00  0.1744E+03
     68.573  0.0000E+00  0.1764E+03
     69.011  0.0000E+00  0.1773E+03
     69.450  0.0000E+00  0.1789E+03
     69.888  0.3766E-11  0.1801E+03
     70.327  0.0000E+00  0.1815E+03
     70.765  0.6326E-01  0.1830E+03
     71.204  0.6342E-08  0.1847E+03
     71.642  0.2451E+00  0.1865E+03
     72.081  0.3050E-01  0.1877E+03
     72.519  0.1267E+00  0.1890E+03
     72.958  0.0000E+00  0.1906E+03
     73.396  0.1267E+00  0.1932E+03
     73.835  0.0000E+00  0.1944E+03
     74.274  0.0000E+00  0.1953E+03
     74.712  0.1671E-06  0.1974E+03
     75.151  0.5067E+00  0.1993E+03
     75.589  0.0000E+00  0.2000E+03
     76.028  0.0000E+00  0.2023E+03
     76.466  0.3032E-03  0.2036E+03
     76.905  0.0000E+00  0.2058E+03
     77.343  0.0000E+00  0.2084E+03
     77.782  0.0000E+00  0.2098E+03
     78.220  0.0000E+00  0.2112E+03
     78.659  0.0000E+00  0.2135E+03
     79.098  0.1689E+00  0.2149E+03
     79.536  0.0000E+00  0.2163E+03
     79.975  0.0000E+00  0.2176E+03
     80.413  0.0000E+00  0.2195E+03
     80.852  0.0000E+00  0.2214E+03
     81.290  0.5068E+00  0.2226E+03
     81.729  0.3600E-03  0.2247E+03
     82.167  0.0000E+00  0.2266E+03
     82.606  0.2692E-02  0.2279E+03
     83.044  0.6644E-14  0.2287E+03
     83.483  0.0000E+00  0.2308E+03
     83.921  0.3367E+00  0.2325E+03
     84.360  0.1293E-02  0.2338E+03
     84.799  0.0000E+00  0.2354E+03
     85.237  0.0000E+00  0.2376E+03
     85.676  0.0000E+00  0.2387E+03
     86.114  0.5119E-03  0.2399E+03
     86.553  0.0000E+00  0.2422E+03
     86.991  0.0000E+00  0.2435E+03
     87.430  0.0000E+00  0.2453E+03
     87.868  0.5067E+00  0.2470E+03
     88.307  0.2694E-03  0.2496E+03
     88.745  0.0000E+00  0.2514E+03
     89.184  0.0000E+00  0.2519E+03
     89.623  0.0000E+00  0.2535E+03
     90.061  0.0000E+00  0.2545E+03
     90.500  0.0000E+00  0.2553E+03
     90.938  0.0000E+00  0.2558E+03
     91.377  0.0000E+00  0.2559E+03
     91.815  0.0000E+00  0.2560E+03
     92.254  0.0000E+00  0.2560E+03
     92.692  0.0000E+00  0.2560E+03
     93.131  0.0000E+00  0.2560E+03
     93.569  0.0000E+00  0.2560E+03
     94.008  0.0000E+00  0.2560E+03
     94.446  0.0000E+00  0.2560E+03
     94.885  0.0000E+00  0.2560E+03
     95.324  0.0000E+00  0.2560E+03
     95.762  0.0000E+00  0.2560E+03
     96.201  0.0000E+00  0.2560E+03
     96.639  0.0000E+00  0.2560E+03
     97.078  0.0000E+00  0.2560E+03
     97.516  0.0000E+00  0.2560E+03
