<?xml version="1.0" encoding="ISO-8859-1"?>
<modeling>
 <generator>
  <i name="program" type="string">vasp </i>
  <i name="version" type="string">5.4.4.18Apr17-6-g9f103f2a35  </i>
  <i name="subversion" type="string">(build Jul 09 2018 16:43:14) complex            parallel </i>
  <i name="platform" type="string">LinuxIFC </i>
  <i name="date" type="string">2018 11 22 </i>
  <i name="time" type="string">20:29:51 </i>
 </generator>
 <incar>
  <i type="string" name="SYSTEM">   Og_FCC</i>
  <i type="string" name="PREC">accurate</i>
  <i type="string" name="ALGO">   EXACT</i>
  <i type="logical" name="ADDGRID"> T  </i>
  <i type="logical" name="LSORBIT"> F  </i>
  <i type="int" name="ISPIN">     1</i>
  <i type="int" name="MAXMIX">    50</i>
  <i type="int" name="NELM">    50</i>
  <i type="int" name="NELMDL">    -5</i>
  <i type="int" name="NELMIN">     2</i>
  <i type="int" name="IBRION">    -1</i>
  <i type="int" name="NFREE">     5</i>
  <i name="EDIFF">      0.00000001</i>
  <i name="EDIFFG">      0.00001000</i>
  <i type="int" name="NSW">     1</i>
  <i type="int" name="ISIF">     3</i>
  <i type="int" name="ISYM">     0</i>
  <i name="SYMPREC">      0.00000010</i>
  <i name="ENCUT">    300.00000000</i>
  <i type="int" name="NBANDS">   128</i>
  <i name="POTIM">      0.10000000</i>
  <i type="logical" name="LREAL"> F  </i>
  <i type="int" name="ISMEAR">     0</i>
  <i name="SIGMA">      0.00100000</i>
  <i type="int" name="NWRITE">     2</i>
  <i type="logical" name="LWAVE"> T  </i>
  <i type="logical" name="LCHARG"> F  </i>
  <i type="logical" name="LVTOT"> F  </i>
  <i type="logical" name="LOPTICS"> T  </i>
  <i type="logical" name="GGA_COMPAT"> F  </i>
  <v type="int" name="KPOINT_BSE">    -1     0     0     0</v>
  <i type="int" name="NELM">    50</i>
  <i type="string" name="GGA"> PE</i>
 </incar>
 <structure name="primitive_cell" >
  <crystal>
   <varray name="basis" >
    <v>       4.34234588       0.00000000       0.00000000 </v>
    <v>       2.17117294       3.76058184      -0.00000000 </v>
    <v>       2.17117294       1.25352728       3.54551056 </v>
   </varray>
   <i name="volume">     57.89729060 </i>
   <varray name="rec_basis" >
    <v>       0.23029027      -0.13295815      -0.09401561 </v>
    <v>       0.00000000       0.26591630      -0.09401561 </v>
    <v>      -0.00000000       0.00000000       0.28204683 </v>
   </varray>
  </crystal>
  <varray name="positions" >
   <v>       0.00000000       0.00000000       0.00000000 </v>
  </varray>
 </structure>
 <varray name="primitive_index" >
  <v type="int" >        1 </v>
 </varray>
 <kpoints>
  <generation param="Gamma">
   <v type="int" name="divisions">       6        6        6 </v>
   <v name="usershift">      0.00000000       0.00000000       0.00000000 </v>
   <v name="genvec1">      0.16666667       0.00000000       0.00000000 </v>
   <v name="genvec2">     -0.00000000       0.16666667      -0.00000000 </v>
   <v name="genvec3">      0.00000000      -0.00000000       0.16666667 </v>
   <v name="shift">      0.00000000       0.00000000       0.00000000 </v>
  </generation>
  <varray name="kpointlist" >
   <v>       0.00000000       0.00000000       0.00000000 </v>
   <v>       0.16666667       0.00000000       0.00000000 </v>
   <v>       0.33333333       0.00000000       0.00000000 </v>
   <v>       0.50000000       0.00000000       0.00000000 </v>
   <v>      -0.00000000       0.16666667      -0.00000000 </v>
   <v>       0.16666667       0.16666667       0.00000000 </v>
   <v>       0.33333333       0.16666667      -0.00000000 </v>
   <v>       0.50000000       0.16666667       0.00000000 </v>
   <v>      -0.33333333       0.16666667      -0.00000000 </v>
   <v>      -0.16666667       0.16666667      -0.00000000 </v>
   <v>       0.00000000       0.33333333      -0.00000000 </v>
   <v>       0.16666667       0.33333333       0.00000000 </v>
   <v>       0.33333333       0.33333333       0.00000000 </v>
   <v>       0.50000000       0.33333333       0.00000000 </v>
   <v>      -0.33333333       0.33333333      -0.00000000 </v>
   <v>      -0.16666667       0.33333333      -0.00000000 </v>
   <v>       0.00000000       0.50000000      -0.00000000 </v>
   <v>       0.16666667       0.50000000       0.00000000 </v>
   <v>       0.33333333       0.50000000       0.00000000 </v>
   <v>       0.50000000       0.50000000       0.00000000 </v>
   <v>       0.00000000       0.00000000       0.16666667 </v>
   <v>       0.16666667       0.00000000       0.16666667 </v>
   <v>       0.33333333      -0.00000000       0.16666667 </v>
   <v>       0.50000000      -0.00000000       0.16666667 </v>
   <v>      -0.33333333      -0.00000000       0.16666667 </v>
   <v>      -0.16666667       0.00000000       0.16666667 </v>
   <v>      -0.00000000       0.16666667       0.16666667 </v>
   <v>       0.16666667       0.16666667       0.16666667 </v>
   <v>       0.33333333       0.16666667       0.16666667 </v>
   <v>       0.50000000       0.16666667       0.16666667 </v>
   <v>      -0.33333333       0.16666667       0.16666667 </v>
   <v>      -0.16666667       0.16666667       0.16666667 </v>
   <v>      -0.00000000       0.33333333       0.16666667 </v>
   <v>       0.16666667       0.33333333       0.16666667 </v>
   <v>       0.33333333       0.33333333       0.16666667 </v>
   <v>       0.50000000       0.33333333       0.16666667 </v>
   <v>      -0.33333333       0.33333333       0.16666667 </v>
   <v>      -0.16666667       0.33333333       0.16666667 </v>
   <v>      -0.00000000       0.50000000       0.16666667 </v>
   <v>       0.16666667       0.50000000       0.16666667 </v>
   <v>       0.33333333       0.50000000       0.16666667 </v>
   <v>       0.50000000       0.50000000       0.16666667 </v>
   <v>      -0.33333333       0.50000000       0.16666667 </v>
   <v>      -0.16666667       0.50000000       0.16666667 </v>
   <v>      -0.00000000      -0.33333333       0.16666667 </v>
   <v>       0.16666667      -0.33333333       0.16666667 </v>
   <v>       0.33333333      -0.33333333       0.16666667 </v>
   <v>       0.50000000      -0.33333333       0.16666667 </v>
   <v>      -0.33333333      -0.33333333       0.16666667 </v>
   <v>      -0.16666667      -0.33333333       0.16666667 </v>
   <v>       0.00000000      -0.16666667       0.16666667 </v>
   <v>       0.16666667      -0.16666667       0.16666667 </v>
   <v>       0.33333333      -0.16666667       0.16666667 </v>
   <v>       0.50000000      -0.16666667       0.16666667 </v>
   <v>      -0.33333333      -0.16666667       0.16666667 </v>
   <v>      -0.16666667      -0.16666667       0.16666667 </v>
   <v>       0.00000000       0.00000000       0.33333333 </v>
   <v>       0.16666667       0.00000000       0.33333333 </v>
   <v>       0.33333333       0.00000000       0.33333333 </v>
   <v>       0.50000000      -0.00000000       0.33333333 </v>
   <v>      -0.33333333       0.00000000       0.33333333 </v>
   <v>      -0.16666667       0.00000000       0.33333333 </v>
   <v>      -0.00000000       0.16666667       0.33333333 </v>
   <v>       0.16666667       0.16666667       0.33333333 </v>
   <v>       0.33333333       0.16666667       0.33333333 </v>
   <v>       0.50000000       0.16666667       0.33333333 </v>
   <v>      -0.33333333       0.16666667       0.33333333 </v>
   <v>      -0.16666667       0.16666667       0.33333333 </v>
   <v>      -0.00000000       0.33333333       0.33333333 </v>
   <v>       0.16666667       0.33333333       0.33333333 </v>
   <v>       0.33333333       0.33333333       0.33333333 </v>
   <v>       0.50000000       0.33333333       0.33333333 </v>
   <v>      -0.33333333       0.33333333       0.33333333 </v>
   <v>      -0.16666667       0.33333333       0.33333333 </v>
   <v>       0.00000000       0.50000000       0.33333333 </v>
   <v>       0.16666667       0.50000000       0.33333333 </v>
   <v>       0.33333333       0.50000000       0.33333333 </v>
   <v>       0.50000000       0.50000000       0.33333333 </v>
   <v>      -0.33333333       0.50000000       0.33333333 </v>
   <v>      -0.16666667       0.50000000       0.33333333 </v>
   <v>       0.00000000      -0.33333333       0.33333333 </v>
   <v>       0.16666667      -0.33333333       0.33333333 </v>
   <v>       0.33333333      -0.33333333       0.33333333 </v>
   <v>       0.50000000      -0.33333333       0.33333333 </v>
   <v>      -0.33333333      -0.33333333       0.33333333 </v>
   <v>      -0.16666667      -0.33333333       0.33333333 </v>
   <v>       0.00000000      -0.16666667       0.33333333 </v>
   <v>       0.16666667      -0.16666667       0.33333333 </v>
   <v>       0.33333333      -0.16666667       0.33333333 </v>
   <v>       0.50000000      -0.16666667       0.33333333 </v>
   <v>      -0.33333333      -0.16666667       0.33333333 </v>
   <v>      -0.16666667      -0.16666667       0.33333333 </v>
   <v>       0.00000000       0.00000000       0.50000000 </v>
   <v>       0.16666667       0.00000000       0.50000000 </v>
   <v>       0.33333333       0.00000000       0.50000000 </v>
   <v>       0.50000000      -0.00000000       0.50000000 </v>
   <v>      -0.00000000       0.16666667       0.50000000 </v>
   <v>       0.16666667       0.16666667       0.50000000 </v>
   <v>       0.33333333       0.16666667       0.50000000 </v>
   <v>       0.50000000       0.16666667       0.50000000 </v>
   <v>      -0.33333333       0.16666667       0.50000000 </v>
   <v>      -0.16666667       0.16666667       0.50000000 </v>
   <v>       0.00000000       0.33333333       0.50000000 </v>
   <v>       0.16666667       0.33333333       0.50000000 </v>
   <v>       0.33333333       0.33333333       0.50000000 </v>
   <v>       0.50000000       0.33333333       0.50000000 </v>
   <v>      -0.33333333       0.33333333       0.50000000 </v>
   <v>      -0.16666667       0.33333333       0.50000000 </v>
   <v>      -0.00000000       0.50000000       0.50000000 </v>
   <v>       0.16666667       0.50000000       0.50000000 </v>
   <v>       0.33333333       0.50000000       0.50000000 </v>
   <v>       0.50000000       0.50000000       0.50000000 </v>
  </varray>
  <varray name="weights" >
   <v>       0.00462963 </v>
   <v>       0.00925926 </v>
   <v>       0.00925926 </v>
   <v>       0.00462963 </v>
   <v>       0.00925926 </v>
   <v>       0.00925926 </v>
   <v>       0.00925926 </v>
   <v>       0.00925926 </v>
   <v>       0.00925926 </v>
   <v>       0.00925926 </v>
   <v>       0.00925926 </v>
   <v>       0.00925926 </v>
   <v>       0.00925926 </v>
   <v>       0.00925926 </v>
   <v>       0.00925926 </v>
   <v>       0.00925926 </v>
   <v>       0.00462963 </v>
   <v>       0.00925926 </v>
   <v>       0.00925926 </v>
   <v>       0.00462963 </v>
   <v>       0.00925926 </v>
   <v>       0.00925926 </v>
   <v>       0.00925926 </v>
   <v>       0.00925926 </v>
   <v>       0.00925926 </v>
   <v>       0.00925926 </v>
   <v>       0.00925926 </v>
   <v>       0.00925926 </v>
   <v>       0.00925926 </v>
   <v>       0.00925926 </v>
   <v>       0.00925926 </v>
   <v>       0.00925926 </v>
   <v>       0.00925926 </v>
   <v>       0.00925926 </v>
   <v>       0.00925926 </v>
   <v>       0.00925926 </v>
   <v>       0.00925926 </v>
   <v>       0.00925926 </v>
   <v>       0.00925926 </v>
   <v>       0.00925926 </v>
   <v>       0.00925926 </v>
   <v>       0.00925926 </v>
   <v>       0.00925926 </v>
   <v>       0.00925926 </v>
   <v>       0.00925926 </v>
   <v>       0.00925926 </v>
   <v>       0.00925926 </v>
   <v>       0.00925926 </v>
   <v>       0.00925926 </v>
   <v>       0.00925926 </v>
   <v>       0.00925926 </v>
   <v>       0.00925926 </v>
   <v>       0.00925926 </v>
   <v>       0.00925926 </v>
   <v>       0.00925926 </v>
   <v>       0.00925926 </v>
   <v>       0.00925926 </v>
   <v>       0.00925926 </v>
   <v>       0.00925926 </v>
   <v>       0.00925926 </v>
   <v>       0.00925926 </v>
   <v>       0.00925926 </v>
   <v>       0.00925926 </v>
   <v>       0.00925926 </v>
   <v>       0.00925926 </v>
   <v>       0.00925926 </v>
   <v>       0.00925926 </v>
   <v>       0.00925926 </v>
   <v>       0.00925926 </v>
   <v>       0.00925926 </v>
   <v>       0.00925926 </v>
   <v>       0.00925926 </v>
   <v>       0.00925926 </v>
   <v>       0.00925926 </v>
   <v>       0.00925926 </v>
   <v>       0.00925926 </v>
   <v>       0.00925926 </v>
   <v>       0.00925926 </v>
   <v>       0.00925926 </v>
   <v>       0.00925926 </v>
   <v>       0.00925926 </v>
   <v>       0.00925926 </v>
   <v>       0.00925926 </v>
   <v>       0.00925926 </v>
   <v>       0.00925926 </v>
   <v>       0.00925926 </v>
   <v>       0.00925926 </v>
   <v>       0.00925926 </v>
   <v>       0.00925926 </v>
   <v>       0.00925926 </v>
   <v>       0.00925926 </v>
   <v>       0.00925926 </v>
   <v>       0.00462963 </v>
   <v>       0.00925926 </v>
   <v>       0.00925926 </v>
   <v>       0.00462963 </v>
   <v>       0.00925926 </v>
   <v>       0.00925926 </v>
   <v>       0.00925926 </v>
   <v>       0.00925926 </v>
   <v>       0.00925926 </v>
   <v>       0.00925926 </v>
   <v>       0.00925926 </v>
   <v>       0.00925926 </v>
   <v>       0.00925926 </v>
   <v>       0.00925926 </v>
   <v>       0.00925926 </v>
   <v>       0.00925926 </v>
   <v>       0.00462963 </v>
   <v>       0.00925926 </v>
   <v>       0.00925926 </v>
   <v>       0.00462963 </v>
  </varray>
 </kpoints>
 <parameters>
  <separator name="general" >
   <i type="string" name="SYSTEM">Og_FCC</i>
   <i type="logical" name="LCOMPAT"> F  </i>
  </separator>
  <separator name="electronic" >
   <i type="string" name="PREC">accura</i>
   <i name="ENMAX">    300.00000000</i>
   <i name="ENAUG">    361.02500000</i>
   <i name="EDIFF">      0.00000001</i>
   <i type="int" name="IALGO">    90</i>
   <i type="int" name="IWAVPR">    10</i>
   <i type="int" name="NBANDS">   128</i>
   <i name="NELECT">     18.00000000</i>
   <i type="int" name="TURBO">     0</i>
   <i type="int" name="IRESTART">     0</i>
   <i type="int" name="NREBOOT">     0</i>
   <i type="int" name="NMIN">     0</i>
   <i name="EREF">      0.00000000</i>
   <separator name="electronic smearing" >
    <i type="int" name="ISMEAR">     0</i>
    <i name="SIGMA">      0.00100000</i>
    <i name="KSPACING">      0.50000000</i>
    <i type="logical" name="KGAMMA"> T  </i>
   </separator>
   <separator name="electronic projectors" >
    <i type="logical" name="LREAL"> F  </i>
    <v name="ROPT">      0.00000000</v>
    <i type="int" name="LMAXPAW">  -100</i>
    <i type="int" name="LMAXMIX">     2</i>
    <i type="logical" name="NLSPLINE"> F  </i>
   </separator>
   <separator name="electronic startup" >
    <i type="int" name="ISTART">     1</i>
    <i type="int" name="ICHARG">     0</i>
    <i type="int" name="INIWAV">     1</i>
   </separator>
   <separator name="electronic spin" >
    <i type="int" name="ISPIN">     1</i>
    <i type="logical" name="LNONCOLLINEAR"> F  </i>
    <v name="MAGMOM">      1.00000000</v>
    <i name="NUPDOWN">     -1.00000000</i>
    <i type="logical" name="LSORBIT"> F  </i>
    <v name="SAXIS">      0.00000000      0.00000000      1.00000000</v>
    <i type="logical" name="LSPIRAL"> F  </i>
    <v name="QSPIRAL">      0.00000000      0.00000000      0.00000000</v>
    <i type="logical" name="LZEROZ"> F  </i>
   </separator>
   <separator name="electronic exchange-correlation" >
    <i type="logical" name="LASPH"> F  </i>
    <i type="logical" name="LMETAGGA"> F  </i>
   </separator>
   <separator name="electronic convergence" >
    <i type="int" name="NELM">    50</i>
    <i type="int" name="NELMDL">    -5</i>
    <i type="int" name="NELMIN">     2</i>
    <i name="ENINI">    300.00000000</i>
    <separator name="electronic convergence detail" >
     <i type="logical" name="LDIAG"> T  </i>
     <i type="logical" name="LSUBROT"> F  </i>
     <i name="WEIMIN">      0.00000000</i>
     <i name="EBREAK">      0.00000000</i>
     <i name="DEPER">      0.30000000</i>
     <i type="int" name="NRMM">     4</i>
     <i name="TIME">      0.40000000</i>
    </separator>
   </separator>
   <separator name="electronic mixer" >
    <i name="AMIX">      0.40000000</i>
    <i name="BMIX">      1.00000000</i>
    <i name="AMIN">      0.10000000</i>
    <i name="AMIX_MAG">      1.60000000</i>
    <i name="BMIX_MAG">      1.00000000</i>
    <separator name="electronic mixer details" >
     <i type="int" name="IMIX">     4</i>
     <i type="logical" name="MIXFIRST"> F  </i>
     <i type="int" name="MAXMIX">    50</i>
     <i name="WC">    100.00000000</i>
     <i type="int" name="INIMIX">     1</i>
     <i type="int" name="MIXPRE">     1</i>
     <i type="int" name="MREMOVE">     5</i>
    </separator>
   </separator>
   <separator name="electronic dipolcorrection" >
    <i type="logical" name="LDIPOL"> F  </i>
    <i type="logical" name="LMONO"> F  </i>
    <i type="int" name="IDIPOL">     0</i>
    <i name="EPSILON">      1.00000000</i>
    <v name="DIPOL">   -100.00000000   -100.00000000   -100.00000000</v>
    <i name="EFIELD">      0.00000000</i>
   </separator>
  </separator>
  <separator name="grids" >
   <i type="int" name="NGX">    28</i>
   <i type="int" name="NGY">    28</i>
   <i type="int" name="NGZ">    28</i>
   <i type="int" name="NGXF">    56</i>
   <i type="int" name="NGYF">    56</i>
   <i type="int" name="NGZF">    56</i>
   <i type="logical" name="ADDGRID"> T  </i>
  </separator>
  <separator name="ionic" >
   <i type="int" name="NSW">     1</i>
   <i type="int" name="IBRION">    -1</i>
   <i type="int" name="MDALGO">     0</i>
   <i type="int" name="ISIF">     3</i>
   <i name="PSTRESS">      0.00000000</i>
   <i name="EDIFFG">      0.00001000</i>
   <i type="int" name="NFREE">     5</i>
   <i name="POTIM">      0.10000000</i>
   <i name="SMASS">     -3.00000000</i>
   <i name="SCALEE">      1.00000000</i>
  </separator>
  <separator name="ionic md" >
   <i name="TEBEG">      0.00010000</i>
   <i name="TEEND">      0.00010000</i>
   <i type="int" name="NBLOCK">     1</i>
   <i type="int" name="KBLOCK">     1</i>
   <i type="int" name="NPACO">   256</i>
   <i name="APACO">     16.00000000</i>
  </separator>
  <separator name="symmetry" >
   <i type="int" name="ISYM">     0</i>
   <i name="SYMPREC">      0.00000010</i>
  </separator>
  <separator name="dos" >
   <i type="int" name="LORBIT">     0</i>
   <v name="RWIGS">     -1.00000000</v>
   <i type="int" name="NEDOS">   301</i>
   <i name="EMIN">     10.00000000</i>
   <i name="EMAX">    -10.00000000</i>
   <i name="EFERMI">      0.00000000</i>
  </separator>
  <separator name="writing" >
   <i type="int" name="NWRITE">     2</i>
   <i type="logical" name="LWAVE"> T  </i>
   <i type="logical" name="LDOWNSAMPLE"> F  </i>
   <i type="logical" name="LCHARG"> F  </i>
   <i type="logical" name="LPARD"> F  </i>
   <i type="logical" name="LVTOT"> F  </i>
   <i type="logical" name="LVHAR"> F  </i>
   <i type="logical" name="LELF"> F  </i>
   <i type="logical" name="LOPTICS"> T  </i>
   <v name="STM">      0.00000000      0.00000000      0.00000000      0.00000000      0.00000000      0.00000000      0.00000000</v>
  </separator>
  <separator name="performance" >
   <i type="int" name="NPAR">     4</i>
   <i type="int" name="NSIM">     4</i>
   <i type="int" name="NBLK">    -1</i>
   <i type="logical" name="LPLANE"> T  </i>
   <i type="logical" name="LSCALAPACK"> T  </i>
   <i type="logical" name="LSCAAWARE"> T  </i>
   <i type="logical" name="LSCALU"> F  </i>
   <i type="logical" name="LASYNC"> F  </i>
   <i type="logical" name="LORBITALREAL"> F  </i>
  </separator>
  <separator name="miscellaneous" >
   <i type="int" name="IDIOT">     3</i>
   <i type="int" name="ISPECIAL">     0</i>
   <i type="logical" name="LMUSIC"> F  </i>
   <v name="POMASS">      0.01000000</v>
   <v name="DARWINR">      0.00000000</v>
   <v name="DARWINV">      1.00000000</v>
   <i type="logical" name="LCORR"> T  </i>
  </separator>
  <i type="logical" name="GGA_COMPAT"> F  </i>
  <i type="logical" name="LBERRY"> F  </i>
  <i type="int" name="ICORELEVEL">     0</i>
  <i type="logical" name="LDAU"> F  </i>
  <i type="int" name="I_CONSTRAINED_M">     0</i>
  <separator name="electronic exchange-correlation" >
   <i type="string" name="GGA">PE</i>
   <i type="int" name="VOSKOWN">     0</i>
   <i type="logical" name="LHFCALC"> F  </i>
   <i type="string" name="PRECFOCK"></i>
   <i type="logical" name="LSYMGRAD"> F  </i>
   <i type="logical" name="LHFONE"> F  </i>
   <i type="logical" name="LRHFCALC"> F  </i>
   <i type="logical" name="LTHOMAS"> F  </i>
   <i type="logical" name="LMODELHF"> F  </i>
   <i name="ENCUT4O">     -1.00000000</i>
   <i type="int" name="EXXOEP">     0</i>
   <i type="int" name="FOURORBIT">     0</i>
   <i name="AEXX">      0.00000000</i>
   <i name="HFALPHA">      0.00000000</i>
   <i name="MCALPHA">      0.00000000</i>
   <i name="ALDAX">      1.00000000</i>
   <i name="AGGAX">      1.00000000</i>
   <i name="ALDAC">      1.00000000</i>
   <i name="AGGAC">      1.00000000</i>
   <i type="int" name="NKREDX">     1</i>
   <i type="int" name="NKREDY">     1</i>
   <i type="int" name="NKREDZ">     1</i>
   <i type="logical" name="SHIFTRED"> F  </i>
   <i type="logical" name="ODDONLY"> F  </i>
   <i type="logical" name="EVENONLY"> F  </i>
   <i type="int" name="LMAXFOCK">     0</i>
   <i type="int" name="NMAXFOCKAE">     0</i>
   <i type="logical" name="LFOCKAEDFT"> F  </i>
   <i name="HFSCREEN">      0.00000000</i>
   <i name="HFSCREENC">      0.00000000</i>
   <i type="int" name="NBANDSGWLOW">     0</i>
  </separator>
  <separator name="vdW DFT" >
   <i type="logical" name="LUSE_VDW"> F  </i>
   <i name="Zab_VDW">     -0.84910000</i>
   <i name="PARAM1">      0.12340000</i>
   <i name="PARAM2">      1.00000000</i>
   <i name="PARAM3">      0.00000000</i>
  </separator>
  <separator name="model GW" >
   <i type="int" name="MODEL_GW">     0</i>
   <i name="MODEL_EPS0">     34.73837436</i>
   <i name="MODEL_ALPHA">      1.00000000</i>
  </separator>
  <separator name="linear response parameters" >
   <i type="logical" name="LEPSILON"> F  </i>
   <i type="logical" name="LRPA"> F  </i>
   <i type="logical" name="LNABLA"> F  </i>
   <i type="logical" name="LVEL"> F  </i>
   <i type="int" name="KINTER">     0</i>
   <i name="CSHIFT">      0.10000000</i>
   <i name="OMEGAMAX">     -1.00000000</i>
   <i name="DEG_THRESHOLD">      0.00200000</i>
   <i name="RTIME">     -0.10000000</i>
   <i name="WPLASMAI">      0.00000000</i>
   <v name="DFIELD">      0.00000000      0.00000000      0.00000000</v>
   <v name="WPLASMA">      0.00000000      0.00000000      0.00000000      0.00000000      0.00000000      0.00000000      0.00000000      0.00000000      0.00000000</v>
  </separator>
  <separator name="orbital magnetization" >
   <i type="logical" name="NUCIND"> F  </i>
   <v name="MAGPOS">      0.00000000      0.00000000      0.00000000</v>
   <i type="logical" name="LNICSALL"> T  </i>
   <i type="logical" name="ORBITALMAG"> F  </i>
   <i type="logical" name="LMAGBLOCH"> F  </i>
   <i type="logical" name="LCHIMAG"> F  </i>
   <i type="logical" name="LGAUGE"> T  </i>
   <i type="int" name="MAGATOM">     0</i>
   <v name="MAGDIPOL">      0.00000000      0.00000000      0.00000000</v>
   <v name="AVECCONST">      0.00000000      0.00000000      0.00000000</v>
  </separator>
  <separator name="response functions" >
   <i type="logical" name="LADDER"> F  </i>
   <i type="logical" name="LRPAFORCE"> F  </i>
   <i type="logical" name="LFXC"> F  </i>
   <i type="logical" name="LHARTREE"> T  </i>
   <i type="int" name="IBSE">     0</i>
   <v type="int" name="KPOINT">    -1     0     0     0</v>
   <i type="logical" name="LTCTE"> F  </i>
   <i type="logical" name="LTETE"> F  </i>
   <i type="logical" name="LTRIPLET"> F  </i>
   <i type="logical" name="LFXCEPS"> F  </i>
   <i type="logical" name="LFXHEG"> F  </i>
   <i type="int" name="NATURALO">     2</i>
   <i type="logical" name="L2ORDER"> F  </i>
   <i type="logical" name="LMP2LT"> F  </i>
   <i type="logical" name="LUSEW"> F  </i>
   <i name="ENCUTGW">     -2.00000000</i>
   <i name="ENCUTGWSOFT">     -2.00000000</i>
   <i name="ENCUTLF">     -1.00000000</i>
   <i type="int" name="LMAXMP2">    -1</i>
   <i name="SCISSOR">      0.00000000</i>
   <i type="int" name="NOMEGA">     0</i>
   <i type="int" name="NOMEGAR">     0</i>
   <i type="int" name="NBANDSGW">    -1</i>
   <i type="int" name="NBANDSO">    -1</i>
   <i type="int" name="NBANDSV">    -1</i>
   <i type="int" name="NELM">    50</i>
   <i type="int" name="NELMHF">     1</i>
   <i type="int" name="DIM">     3</i>
   <i type="int" name="ANTIRES">     0</i>
   <i name="OMEGAMAX">    -30.00000000</i>
   <i name="OMEGAMIN">    -30.00000000</i>
   <i name="OMEGATL">   -200.00000000</i>
   <i type="int" name="OMEGAGRID">   140</i>
   <i name="CSHIFT">     -0.10000000</i>
   <i type="logical" name="SELFENERGY"> F  </i>
   <i type="logical" name="LSPECTRAL"> F  </i>
   <i type="logical" name="LSPECTRALGW"> F  </i>
   <i type="logical" name="LSINGLES"> F  </i>
   <i type="logical" name="LFERMIGW"> F  </i>
   <i type="logical" name="ODDONLYGW"> F  </i>
   <i type="logical" name="EVENONLYGW"> F  </i>
   <i type="int" name="NKREDLFX">     1</i>
   <i type="int" name="NKREDLFY">     1</i>
   <i type="int" name="NKREDLFZ">     1</i>
   <i type="int" name="MAXMEM">  2800</i>
   <i type="int" name="TELESCOPE">     0</i>
   <i type="int" name="TAUPAR">     1</i>
   <i type="int" name="OMEGAPAR">    -1</i>
   <i name="LAMBDA">      1.00000000</i>
  </separator>
  <separator name="External order field" >
   <i name="OFIELD_KAPPA">      0.00000000</i>
   <v name="OFIELD_K">      0.00000000      0.00000000      0.00000000</v>
   <i name="OFIELD_Q6_NEAR">      0.00000000</i>
   <i name="OFIELD_Q6_FAR">      0.00000000</i>
   <i name="OFIELD_A">      0.00000000</i>
  </separator>
 </parameters>
 <atominfo>
  <atoms>       1 </atoms>
  <types>       1 </types>
  <array name="atoms" >
   <dimension dim="1">ion</dimension>
   <field type="string">element</field>
   <field type="int">atomtype</field>
   <set>
    <rc><c>Og</c><c>   1</c></rc>
   </set>
  </array>
  <array name="atomtypes" >
   <dimension dim="1">type</dimension>
   <field type="int">atomspertype</field>
   <field type="string">element</field>
   <field>mass</field>
   <field>valence</field>
   <field type="string">pseudopotential</field>
   <set>
    <rc><c>   1</c><c>Og</c><c>      0.01000000</c><c>     18.00000000</c><c>  PAW Og, JanMewes Oct 18               </c></rc>
   </set>
  </array>
 </atominfo>
 <structure name="initialpos" >
  <crystal>
   <varray name="basis" >
    <v>       4.34234588       0.00000000       0.00000000 </v>
    <v>       2.17117294       3.76058184      -0.00000000 </v>
    <v>       2.17117294       1.25352728       3.54551056 </v>
   </varray>
   <i name="volume">     57.89729060 </i>
   <varray name="rec_basis" >
    <v>       0.23029027      -0.13295815      -0.09401561 </v>
    <v>       0.00000000       0.26591630      -0.09401561 </v>
    <v>      -0.00000000       0.00000000       0.28204683 </v>
   </varray>
  </crystal>
  <varray name="positions" >
   <v>       0.00000000       0.00000000       0.00000000 </v>
  </varray>
  <varray name="velocities" >
   <v>       0.00000000       0.00000000       0.00000000 </v>
  </varray>
 </structure>
 <calculation>
  <scstep>
   <time name="diag">   23.33   23.33</time>
   <time name="total">   23.37   23.37</time>
   <energy>
    <i name="alphaZ">     65.89697999 </i>
    <i name="ewald">  -1741.63824267 </i>
    <i name="hartreedc">   -658.91323577 </i>
    <i name="XCdc">    -69.28754223 </i>
    <i name="pawpsdc">   2283.32534092 </i>
    <i name="pawaedc">  -2199.20352111 </i>
    <i name="eentropy">      0.00000000 </i>
    <i name="bandstr">   -319.90942397 </i>
    <i name="atom">   2639.90492407 </i>
    <i name="e_fr_energy">      0.17527923 </i>
    <i name="e_wo_entrp">      0.17527923 </i>
    <i name="e_0_energy">      0.17527923 </i>
   </energy>
  </scstep>
  <scstep>
   <time name="diag">   23.25   23.25</time>
   <time name="total">   23.25   23.25</time>
   <energy>
    <i name="e_fr_energy">      0.17527923 </i>
    <i name="e_wo_entrp">      0.17527923 </i>
    <i name="e_0_energy">      0.17527923 </i>
   </energy>
  </scstep>
  <scstep>
   <time name="diag">   23.22   23.22</time>
   <time name="total">   23.22   23.22</time>
   <energy>
    <i name="e_fr_energy">      0.17527923 </i>
    <i name="e_wo_entrp">      0.17527923 </i>
    <i name="e_0_energy">      0.17527923 </i>
   </energy>
  </scstep>
  <scstep>
   <time name="diag">   22.92   22.92</time>
   <time name="total">   22.93   22.92</time>
   <energy>
    <i name="e_fr_energy">      0.17527923 </i>
    <i name="e_wo_entrp">      0.17527923 </i>
    <i name="e_0_energy">      0.17527923 </i>
   </energy>
  </scstep>
  <scstep>
   <time name="diag">   22.95   22.95</time>
   <time name="total">   22.98   22.98</time>
   <energy>
    <i name="e_fr_energy">      0.17527923 </i>
    <i name="e_wo_entrp">      0.17527923 </i>
    <i name="e_0_energy">      0.17527923 </i>
   </energy>
  </scstep>
  <scstep>
   <time name="diag">   22.93   22.93</time>
   <time name="total">   22.96   22.96</time>
   <energy>
    <i name="alphaZ">     65.89697999 </i>
    <i name="ewald">  -1741.63824267 </i>
    <i name="hartreedc">   -658.91323916 </i>
    <i name="XCdc">    -69.28754213 </i>
    <i name="pawpsdc">   2283.32536670 </i>
    <i name="pawaedc">  -2199.20354762 </i>
    <i name="eentropy">      0.00000000 </i>
    <i name="bandstr">   -319.90941993 </i>
    <i name="atom">   2639.90492407 </i>
    <i name="e_fr_energy">      0.17527923 </i>
    <i name="e_wo_entrp">      0.17527923 </i>
    <i name="e_0_energy">      0.17527923 </i>
   </energy>
  </scstep>
  <structure>
   <crystal>
    <varray name="basis" >
     <v>       4.34234588       0.00000000       0.00000000 </v>
     <v>       2.17117294       3.76058184      -0.00000000 </v>
     <v>       2.17117294       1.25352728       3.54551056 </v>
    </varray>
    <i name="volume">     57.89729060 </i>
    <varray name="rec_basis" >
     <v>       0.23029027      -0.13295815      -0.09401561 </v>
     <v>       0.00000000       0.26591630      -0.09401561 </v>
     <v>      -0.00000000       0.00000000       0.28204683 </v>
    </varray>
   </crystal>
   <varray name="positions" >
    <v>       0.00000000       0.00000000       0.00000000 </v>
   </varray>
  </structure>
  <varray name="forces" >
   <v>       0.00000000      -0.00000001      -0.00000001 </v>
  </varray>
  <varray name="stress" >
   <v> **************** **************** **************** </v>
   <v> **************** **************** **************** </v>
   <v> **************** **************** **************** </v>
  </varray>
  <energy>
   <i name="e_fr_energy">**************** </i>
   <i name="e_wo_entrp">**************** </i>
   <i name="e_0_energy">      0.00000000 </i>
  </energy>
  <time name="totalsc">  140.24  140.28</time>
  <eigenvalues>
   <array>
    <dimension dim="1">band</dimension>
    <dimension dim="2">kpoint</dimension>
    <dimension dim="3">spin</dimension>
    <field>eigene</field>
    <field>occ</field>
    <set>
     <set comment="spin 1">
      <set comment="kpoint 1">
       <r>  -28.0604    1.0000 </r>
       <r>  -28.0604    1.0000 </r>
       <r>  -28.0538    1.0000 </r>
       <r>  -28.0538    1.0000 </r>
       <r>  -28.0538    1.0000 </r>
       <r>  -21.0830    1.0000 </r>
       <r>    1.8613    1.0000 </r>
       <r>    1.8613    1.0000 </r>
       <r>    1.8613    1.0000 </r>
       <r>    3.8274    0.0000 </r>
       <r>   11.0142    0.0000 </r>
       <r>   11.0142    0.0000 </r>
       <r>   11.0142    0.0000 </r>
       <r>   11.2845    0.0000 </r>
       <r>   13.5180    0.0000 </r>
       <r>   13.5180    0.0000 </r>
       <r>   13.5180    0.0000 </r>
       <r>   14.1545    0.0000 </r>
       <r>   14.1545    0.0000 </r>
       <r>   16.6726    0.0000 </r>
       <r>   20.0119    0.0000 </r>
       <r>   20.0119    0.0000 </r>
       <r>   20.0119    0.0000 </r>
       <r>   25.7767    0.0000 </r>
       <r>   25.7767    0.0000 </r>
       <r>   25.7767    0.0000 </r>
       <r>   26.1333    0.0000 </r>
       <r>   29.4816    0.0000 </r>
       <r>   29.4816    0.0000 </r>
       <r>   30.2441    0.0000 </r>
       <r>   30.3344    0.0000 </r>
       <r>   30.3344    0.0000 </r>
       <r>   30.3344    0.0000 </r>
       <r>   30.5922    0.0000 </r>
       <r>   30.5922    0.0000 </r>
       <r>   30.5922    0.0000 </r>
       <r>   37.8592    0.0000 </r>
       <r>   37.8592    0.0000 </r>
       <r>   37.8592    0.0000 </r>
       <r>   38.4930    0.0000 </r>
       <r>   38.4930    0.0000 </r>
       <r>   38.4930    0.0000 </r>
       <r>   41.2010    0.0000 </r>
       <r>   41.2010    0.0000 </r>
       <r>   41.2010    0.0000 </r>
       <r>   42.5976    0.0000 </r>
       <r>   42.5976    0.0000 </r>
       <r>   42.5976    0.0000 </r>
       <r>   42.6396    0.0000 </r>
       <r>   42.9343    0.0000 </r>
       <r>   42.9343    0.0000 </r>
       <r>   43.3405    0.0000 </r>
       <r>   43.3405    0.0000 </r>
       <r>   43.9607    0.0000 </r>
       <r>   43.9607    0.0000 </r>
       <r>   43.9607    0.0000 </r>
       <r>   45.2794    0.0000 </r>
       <r>   45.9618    0.0000 </r>
       <r>   45.9618    0.0000 </r>
       <r>   45.9618    0.0000 </r>
       <r>   47.0802    0.0000 </r>
       <r>   47.2721    0.0000 </r>
       <r>   47.2721    0.0000 </r>
       <r>   47.2721    0.0000 </r>
       <r>   51.1891    0.0000 </r>
       <r>   51.1891    0.0000 </r>
       <r>   51.1891    0.0000 </r>
       <r>   54.2412    0.0000 </r>
       <r>   54.2412    0.0000 </r>
       <r>   54.2412    0.0000 </r>
       <r>   58.3787    0.0000 </r>
       <r>   58.3787    0.0000 </r>
       <r>   58.5390    0.0000 </r>
       <r>   59.0070    0.0000 </r>
       <r>   65.9410    0.0000 </r>
       <r>   65.9410    0.0000 </r>
       <r>   65.9410    0.0000 </r>
       <r>   66.2187    0.0000 </r>
       <r>   66.2187    0.0000 </r>
       <r>   66.2187    0.0000 </r>
       <r>   67.4607    0.0000 </r>
       <r>   67.4607    0.0000 </r>
       <r>   67.9101    0.0000 </r>
       <r>   67.9101    0.0000 </r>
       <r>   67.9101    0.0000 </r>
       <r>   72.1311    0.0000 </r>
       <r>   72.1311    0.0000 </r>
       <r>   72.1311    0.0000 </r>
       <r>   72.8954    0.0000 </r>
       <r>   72.8954    0.0000 </r>
       <r>   74.0282    0.0000 </r>
       <r>   74.0282    0.0000 </r>
       <r>   74.0282    0.0000 </r>
       <r>   74.1581    0.0000 </r>
       <r>   74.1581    0.0000 </r>
       <r>   74.1581    0.0000 </r>
       <r>   74.5794    0.0000 </r>
       <r>   76.2014    0.0000 </r>
       <r>   76.5333    0.0000 </r>
       <r>   76.5452    0.0000 </r>
       <r>   76.5452    0.0000 </r>
       <r>   76.5452    0.0000 </r>
       <r>   77.3276    0.0000 </r>
       <r>   77.3276    0.0000 </r>
       <r>   77.3276    0.0000 </r>
       <r>   78.6214    0.0000 </r>
       <r>   78.6214    0.0000 </r>
       <r>   78.7124    0.0000 </r>
       <r>   78.7124    0.0000 </r>
       <r>   78.7124    0.0000 </r>
       <r>   80.3067    0.0000 </r>
       <r>   80.3067    0.0000 </r>
       <r>   80.3067    0.0000 </r>
       <r>   80.8828    0.0000 </r>
       <r>   80.8828    0.0000 </r>
       <r>   80.8828    0.0000 </r>
       <r>   82.6596    0.0000 </r>
       <r>   82.8714    0.0000 </r>
       <r>   82.8714    0.0000 </r>
       <r>   83.0495    0.0000 </r>
       <r>   86.3154    0.0000 </r>
       <r>   86.3154    0.0000 </r>
       <r>   86.3154    0.0000 </r>
       <r>   88.1415    0.0000 </r>
       <r>   88.1415    0.0000 </r>
       <r>   88.1415    0.0000 </r>
       <r>   88.1753    0.0000 </r>
       <r>   88.1753    0.0000 </r>
      </set>
      <set comment="kpoint 2">
       <r>  -28.0426    1.0000 </r>
       <r>  -28.0426    1.0000 </r>
       <r>  -28.0351    1.0000 </r>
       <r>  -28.0351    1.0000 </r>
       <r>  -28.0335    1.0000 </r>
       <r>  -21.0586    1.0000 </r>
       <r>    0.5573    1.0000 </r>
       <r>    1.7537    1.0000 </r>
       <r>    1.7537    1.0000 </r>
       <r>    5.2532    0.0000 </r>
       <r>    9.9715    0.0000 </r>
       <r>   11.2215    0.0000 </r>
       <r>   11.2215    0.0000 </r>
       <r>   12.3282    0.0000 </r>
       <r>   12.5748    0.0000 </r>
       <r>   12.5748    0.0000 </r>
       <r>   13.8065    0.0000 </r>
       <r>   15.8431    0.0000 </r>
       <r>   15.8431    0.0000 </r>
       <r>   18.3525    0.0000 </r>
       <r>   19.6501    0.0000 </r>
       <r>   19.6501    0.0000 </r>
       <r>   20.0962    0.0000 </r>
       <r>   23.7120    0.0000 </r>
       <r>   25.2353    0.0000 </r>
       <r>   25.2353    0.0000 </r>
       <r>   25.7156    0.0000 </r>
       <r>   27.1726    0.0000 </r>
       <r>   28.3081    0.0000 </r>
       <r>   28.3081    0.0000 </r>
       <r>   30.3361    0.0000 </r>
       <r>   30.3361    0.0000 </r>
       <r>   30.9107    0.0000 </r>
       <r>   32.2394    0.0000 </r>
       <r>   32.2394    0.0000 </r>
       <r>   35.4889    0.0000 </r>
       <r>   36.0327    0.0000 </r>
       <r>   36.4791    0.0000 </r>
       <r>   36.4791    0.0000 </r>
       <r>   36.9599    0.0000 </r>
       <r>   38.7173    0.0000 </r>
       <r>   38.7173    0.0000 </r>
       <r>   39.3246    0.0000 </r>
       <r>   39.3246    0.0000 </r>
       <r>   39.4686    0.0000 </r>
       <r>   40.5490    0.0000 </r>
       <r>   40.5490    0.0000 </r>
       <r>   41.4989    0.0000 </r>
       <r>   41.5034    0.0000 </r>
       <r>   42.9243    0.0000 </r>
       <r>   42.9243    0.0000 </r>
       <r>   43.3543    0.0000 </r>
       <r>   44.5293    0.0000 </r>
       <r>   44.9091    0.0000 </r>
       <r>   44.9091    0.0000 </r>
       <r>   45.7040    0.0000 </r>
       <r>   45.7040    0.0000 </r>
       <r>   47.3657    0.0000 </r>
       <r>   47.3657    0.0000 </r>
       <r>   48.6091    0.0000 </r>
       <r>   49.5500    0.0000 </r>
       <r>   49.5500    0.0000 </r>
       <r>   50.2672    0.0000 </r>
       <r>   51.3499    0.0000 </r>
       <r>   52.2424    0.0000 </r>
       <r>   52.3048    0.0000 </r>
       <r>   52.3048    0.0000 </r>
       <r>   53.9939    0.0000 </r>
       <r>   53.9939    0.0000 </r>
       <r>   54.0001    0.0000 </r>
       <r>   57.4417    0.0000 </r>
       <r>   59.4077    0.0000 </r>
       <r>   59.4077    0.0000 </r>
       <r>   60.5767    0.0000 </r>
       <r>   62.4616    0.0000 </r>
       <r>   62.4616    0.0000 </r>
       <r>   63.7412    0.0000 </r>
       <r>   63.7412    0.0000 </r>
       <r>   65.3749    0.0000 </r>
       <r>   65.4240    0.0000 </r>
       <r>   66.5753    0.0000 </r>
       <r>   67.0004    0.0000 </r>
       <r>   67.0004    0.0000 </r>
       <r>   69.6924    0.0000 </r>
       <r>   69.7967    0.0000 </r>
       <r>   69.7967    0.0000 </r>
       <r>   70.5495    0.0000 </r>
       <r>   70.5495    0.0000 </r>
       <r>   71.2732    0.0000 </r>
       <r>   71.2732    0.0000 </r>
       <r>   71.6601    0.0000 </r>
       <r>   71.8450    0.0000 </r>
       <r>   72.7639    0.0000 </r>
       <r>   72.7639    0.0000 </r>
       <r>   74.2074    0.0000 </r>
       <r>   74.9640    0.0000 </r>
       <r>   75.4655    0.0000 </r>
       <r>   75.4655    0.0000 </r>
       <r>   75.8545    0.0000 </r>
       <r>   75.8545    0.0000 </r>
       <r>   76.6725    0.0000 </r>
       <r>   77.3879    0.0000 </r>
       <r>   78.2056    0.0000 </r>
       <r>   78.2056    0.0000 </r>
       <r>   78.5587    0.0000 </r>
       <r>   78.5587    0.0000 </r>
       <r>   78.6753    0.0000 </r>
       <r>   79.1009    0.0000 </r>
       <r>   79.7749    0.0000 </r>
       <r>   79.7749    0.0000 </r>
       <r>   80.4861    0.0000 </r>
       <r>   80.4861    0.0000 </r>
       <r>   81.2495    0.0000 </r>
       <r>   81.2495    0.0000 </r>
       <r>   82.8605    0.0000 </r>
       <r>   83.5222    0.0000 </r>
       <r>   83.5765    0.0000 </r>
       <r>   84.2798    0.0000 </r>
       <r>   84.2798    0.0000 </r>
       <r>   84.3617    0.0000 </r>
       <r>   84.5499    0.0000 </r>
       <r>   85.9255    0.0000 </r>
       <r>   85.9255    0.0000 </r>
       <r>   86.8980    0.0000 </r>
       <r>   86.8980    0.0000 </r>
       <r>   88.2389    0.0000 </r>
       <r>   88.2389    0.0000 </r>
       <r>   88.5931    0.0000 </r>
      </set>
      <set comment="kpoint 3">
       <r>  -28.0478    1.0000 </r>
       <r>  -28.0464    1.0000 </r>
       <r>  -28.0464    1.0000 </r>
       <r>  -28.0415    1.0000 </r>
       <r>  -28.0415    1.0000 </r>
       <r>  -21.0100    1.0000 </r>
       <r>   -0.7650    1.0000 </r>
       <r>    1.5519    1.0000 </r>
       <r>    1.5519    1.0000 </r>
       <r>    6.2289    0.0000 </r>
       <r>   10.8160    0.0000 </r>
       <r>   10.8160    0.0000 </r>
       <r>   10.9445    0.0000 </r>
       <r>   11.4594    0.0000 </r>
       <r>   13.3809    0.0000 </r>
       <r>   13.3809    0.0000 </r>
       <r>   16.8000    0.0000 </r>
       <r>   17.7346    0.0000 </r>
       <r>   17.7346    0.0000 </r>
       <r>   18.3212    0.0000 </r>
       <r>   18.3212    0.0000 </r>
       <r>   19.1630    0.0000 </r>
       <r>   20.2188    0.0000 </r>
       <r>   21.4137    0.0000 </r>
       <r>   25.0047    0.0000 </r>
       <r>   25.0047    0.0000 </r>
       <r>   25.0923    0.0000 </r>
       <r>   26.8967    0.0000 </r>
       <r>   27.0940    0.0000 </r>
       <r>   27.0940    0.0000 </r>
       <r>   30.9770    0.0000 </r>
       <r>   31.0623    0.0000 </r>
       <r>   31.0623    0.0000 </r>
       <r>   31.6779    0.0000 </r>
       <r>   31.6779    0.0000 </r>
       <r>   32.1203    0.0000 </r>
       <r>   33.7328    0.0000 </r>
       <r>   34.0560    0.0000 </r>
       <r>   35.3490    0.0000 </r>
       <r>   35.3490    0.0000 </r>
       <r>   36.2771    0.0000 </r>
       <r>   36.2771    0.0000 </r>
       <r>   39.3162    0.0000 </r>
       <r>   39.3162    0.0000 </r>
       <r>   40.6336    0.0000 </r>
       <r>   40.7905    0.0000 </r>
       <r>   40.7905    0.0000 </r>
       <r>   42.7135    0.0000 </r>
       <r>   42.8568    0.0000 </r>
       <r>   42.8568    0.0000 </r>
       <r>   43.8429    0.0000 </r>
       <r>   44.7699    0.0000 </r>
       <r>   45.1307    0.0000 </r>
       <r>   46.2392    0.0000 </r>
       <r>   46.2392    0.0000 </r>
       <r>   46.7192    0.0000 </r>
       <r>   46.7192    0.0000 </r>
       <r>   49.7298    0.0000 </r>
       <r>   51.3893    0.0000 </r>
       <r>   51.3893    0.0000 </r>
       <r>   51.8080    0.0000 </r>
       <r>   52.2685    0.0000 </r>
       <r>   52.4369    0.0000 </r>
       <r>   52.4369    0.0000 </r>
       <r>   53.6700    0.0000 </r>
       <r>   54.4607    0.0000 </r>
       <r>   54.4607    0.0000 </r>
       <r>   55.4719    0.0000 </r>
       <r>   55.4719    0.0000 </r>
       <r>   55.9428    0.0000 </r>
       <r>   55.9428    0.0000 </r>
       <r>   57.8929    0.0000 </r>
       <r>   59.7041    0.0000 </r>
       <r>   59.9922    0.0000 </r>
       <r>   59.9922    0.0000 </r>
       <r>   60.3717    0.0000 </r>
       <r>   61.2346    0.0000 </r>
       <r>   62.2117    0.0000 </r>
       <r>   63.2553    0.0000 </r>
       <r>   63.2553    0.0000 </r>
       <r>   64.6915    0.0000 </r>
       <r>   64.9596    0.0000 </r>
       <r>   64.9596    0.0000 </r>
       <r>   67.4340    0.0000 </r>
       <r>   67.4340    0.0000 </r>
       <r>   68.2725    0.0000 </r>
       <r>   68.3157    0.0000 </r>
       <r>   68.3157    0.0000 </r>
       <r>   70.5020    0.0000 </r>
       <r>   70.7272    0.0000 </r>
       <r>   70.7272    0.0000 </r>
       <r>   71.9304    0.0000 </r>
       <r>   72.2785    0.0000 </r>
       <r>   72.2785    0.0000 </r>
       <r>   73.1545    0.0000 </r>
       <r>   73.1545    0.0000 </r>
       <r>   73.7181    0.0000 </r>
       <r>   74.3828    0.0000 </r>
       <r>   75.0813    0.0000 </r>
       <r>   75.0813    0.0000 </r>
       <r>   76.0853    0.0000 </r>
       <r>   76.0853    0.0000 </r>
       <r>   76.8845    0.0000 </r>
       <r>   78.3947    0.0000 </r>
       <r>   79.2140    0.0000 </r>
       <r>   79.4514    0.0000 </r>
       <r>   79.4514    0.0000 </r>
       <r>   79.7734    0.0000 </r>
       <r>   79.9460    0.0000 </r>
       <r>   81.8965    0.0000 </r>
       <r>   81.8965    0.0000 </r>
       <r>   82.1517    0.0000 </r>
       <r>   82.1517    0.0000 </r>
       <r>   82.1588    0.0000 </r>
       <r>   82.3180    0.0000 </r>
       <r>   83.5120    0.0000 </r>
       <r>   83.6960    0.0000 </r>
       <r>   83.6960    0.0000 </r>
       <r>   84.8155    0.0000 </r>
       <r>   84.8155    0.0000 </r>
       <r>   85.8345    0.0000 </r>
       <r>   85.8345    0.0000 </r>
       <r>   87.9117    0.0000 </r>
       <r>   87.9117    0.0000 </r>
       <r>   88.1078    0.0000 </r>
       <r>   88.5996    0.0000 </r>
       <r>   89.2892    0.0000 </r>
       <r>   89.2892    0.0000 </r>
      </set>
      <set comment="kpoint 4">
       <r>  -28.0617    1.0000 </r>
       <r>  -28.0617    1.0000 </r>
       <r>  -28.0598    1.0000 </r>
       <r>  -28.0472    1.0000 </r>
       <r>  -28.0472    1.0000 </r>
       <r>  -20.9854    1.0000 </r>
       <r>   -1.2454    1.0000 </r>
       <r>    1.4569    1.0000 </r>
       <r>    1.4569    1.0000 </r>
       <r>    6.2938    0.0000 </r>
       <r>   10.5377    0.0000 </r>
       <r>   10.5377    0.0000 </r>
       <r>   10.8742    0.0000 </r>
       <r>   13.2655    0.0000 </r>
       <r>   14.5343    0.0000 </r>
       <r>   14.5343    0.0000 </r>
       <r>   16.1151    0.0000 </r>
       <r>   16.9290    0.0000 </r>
       <r>   16.9290    0.0000 </r>
       <r>   18.6996    0.0000 </r>
       <r>   18.6996    0.0000 </r>
       <r>   18.7030    0.0000 </r>
       <r>   20.2811    0.0000 </r>
       <r>   23.9677    0.0000 </r>
       <r>   23.9814    0.0000 </r>
       <r>   25.4940    0.0000 </r>
       <r>   25.4940    0.0000 </r>
       <r>   26.4344    0.0000 </r>
       <r>   26.4344    0.0000 </r>
       <r>   27.2375    0.0000 </r>
       <r>   28.4275    0.0000 </r>
       <r>   30.2389    0.0000 </r>
       <r>   30.2389    0.0000 </r>
       <r>   30.9096    0.0000 </r>
       <r>   31.9170    0.0000 </r>
       <r>   31.9170    0.0000 </r>
       <r>   32.7609    0.0000 </r>
       <r>   33.1112    0.0000 </r>
       <r>   34.0297    0.0000 </r>
       <r>   34.0297    0.0000 </r>
       <r>   36.4194    0.0000 </r>
       <r>   36.4194    0.0000 </r>
       <r>   39.6665    0.0000 </r>
       <r>   39.6665    0.0000 </r>
       <r>   39.8811    0.0000 </r>
       <r>   39.8811    0.0000 </r>
       <r>   40.7603    0.0000 </r>
       <r>   42.0964    0.0000 </r>
       <r>   44.0280    0.0000 </r>
       <r>   44.0280    0.0000 </r>
       <r>   46.1104    0.0000 </r>
       <r>   46.1104    0.0000 </r>
       <r>   46.3172    0.0000 </r>
       <r>   46.3499    0.0000 </r>
       <r>   47.8366    0.0000 </r>
       <r>   50.2310    0.0000 </r>
       <r>   50.2310    0.0000 </r>
       <r>   50.7465    0.0000 </r>
       <r>   50.7465    0.0000 </r>
       <r>   51.2665    0.0000 </r>
       <r>   51.3480    0.0000 </r>
       <r>   52.4783    0.0000 </r>
       <r>   52.6729    0.0000 </r>
       <r>   52.8479    0.0000 </r>
       <r>   52.8479    0.0000 </r>
       <r>   52.9331    0.0000 </r>
       <r>   52.9331    0.0000 </r>
       <r>   57.2894    0.0000 </r>
       <r>   57.2894    0.0000 </r>
       <r>   57.3248    0.0000 </r>
       <r>   57.3640    0.0000 </r>
       <r>   58.0321    0.0000 </r>
       <r>   58.0912    0.0000 </r>
       <r>   58.0912    0.0000 </r>
       <r>   59.6709    0.0000 </r>
       <r>   59.6709    0.0000 </r>
       <r>   61.3716    0.0000 </r>
       <r>   61.3716    0.0000 </r>
       <r>   61.4932    0.0000 </r>
       <r>   63.1026    0.0000 </r>
       <r>   63.1026    0.0000 </r>
       <r>   63.4574    0.0000 </r>
       <r>   66.0192    0.0000 </r>
       <r>   66.0192    0.0000 </r>
       <r>   67.9201    0.0000 </r>
       <r>   67.9895    0.0000 </r>
       <r>   67.9895    0.0000 </r>
       <r>   68.8582    0.0000 </r>
       <r>   68.8582    0.0000 </r>
       <r>   69.9735    0.0000 </r>
       <r>   70.2952    0.0000 </r>
       <r>   72.0811    0.0000 </r>
       <r>   72.4262    0.0000 </r>
       <r>   72.4262    0.0000 </r>
       <r>   72.5946    0.0000 </r>
       <r>   72.5946    0.0000 </r>
       <r>   74.1432    0.0000 </r>
       <r>   74.4074    0.0000 </r>
       <r>   75.0366    0.0000 </r>
       <r>   75.5220    0.0000 </r>
       <r>   75.5220    0.0000 </r>
       <r>   75.7562    0.0000 </r>
       <r>   76.1828    0.0000 </r>
       <r>   77.6810    0.0000 </r>
       <r>   77.8861    0.0000 </r>
       <r>   77.9913    0.0000 </r>
       <r>   77.9913    0.0000 </r>
       <r>   79.0922    0.0000 </r>
       <r>   79.0922    0.0000 </r>
       <r>   79.2391    0.0000 </r>
       <r>   79.2391    0.0000 </r>
       <r>   81.9492    0.0000 </r>
       <r>   81.9492    0.0000 </r>
       <r>   82.8591    0.0000 </r>
       <r>   83.0531    0.0000 </r>
       <r>   83.0531    0.0000 </r>
       <r>   83.9199    0.0000 </r>
       <r>   85.9482    0.0000 </r>
       <r>   85.9482    0.0000 </r>
       <r>   86.1160    0.0000 </r>
       <r>   86.3495    0.0000 </r>
       <r>   86.6373    0.0000 </r>
       <r>   86.6373    0.0000 </r>
       <r>   87.8908    0.0000 </r>
       <r>   88.4706    0.0000 </r>
       <r>   88.4706    0.0000 </r>
       <r>   88.6226    0.0000 </r>
       <r>   88.6226    0.0000 </r>
      </set>
      <set comment="kpoint 5">
       <r>  -28.0426    1.0000 </r>
       <r>  -28.0426    1.0000 </r>
       <r>  -28.0351    1.0000 </r>
       <r>  -28.0351    1.0000 </r>
       <r>  -28.0335    1.0000 </r>
       <r>  -21.0586    1.0000 </r>
       <r>    0.5573    1.0000 </r>
       <r>    1.7537    1.0000 </r>
       <r>    1.7537    1.0000 </r>
       <r>    5.2532    0.0000 </r>
       <r>    9.9715    0.0000 </r>
       <r>   11.2215    0.0000 </r>
       <r>   11.2215    0.0000 </r>
       <r>   12.3282    0.0000 </r>
       <r>   12.5748    0.0000 </r>
       <r>   12.5748    0.0000 </r>
       <r>   13.8065    0.0000 </r>
       <r>   15.8431    0.0000 </r>
       <r>   15.8431    0.0000 </r>
       <r>   18.3525    0.0000 </r>
       <r>   19.6501    0.0000 </r>
       <r>   19.6501    0.0000 </r>
       <r>   20.0962    0.0000 </r>
       <r>   23.7120    0.0000 </r>
       <r>   25.2353    0.0000 </r>
       <r>   25.2353    0.0000 </r>
       <r>   25.7156    0.0000 </r>
       <r>   27.1726    0.0000 </r>
       <r>   28.3081    0.0000 </r>
       <r>   28.3081    0.0000 </r>
       <r>   30.3361    0.0000 </r>
       <r>   30.3361    0.0000 </r>
       <r>   30.9107    0.0000 </r>
       <r>   32.2394    0.0000 </r>
       <r>   32.2394    0.0000 </r>
       <r>   35.4889    0.0000 </r>
       <r>   36.0327    0.0000 </r>
       <r>   36.4791    0.0000 </r>
       <r>   36.4791    0.0000 </r>
       <r>   36.9599    0.0000 </r>
       <r>   38.7173    0.0000 </r>
       <r>   38.7173    0.0000 </r>
       <r>   39.3246    0.0000 </r>
       <r>   39.3246    0.0000 </r>
       <r>   39.4686    0.0000 </r>
       <r>   40.5490    0.0000 </r>
       <r>   40.5490    0.0000 </r>
       <r>   41.4989    0.0000 </r>
       <r>   41.5034    0.0000 </r>
       <r>   42.9243    0.0000 </r>
       <r>   42.9243    0.0000 </r>
       <r>   43.3543    0.0000 </r>
       <r>   44.5293    0.0000 </r>
       <r>   44.9091    0.0000 </r>
       <r>   44.9091    0.0000 </r>
       <r>   45.7040    0.0000 </r>
       <r>   45.7040    0.0000 </r>
       <r>   47.3657    0.0000 </r>
       <r>   47.3657    0.0000 </r>
       <r>   48.6091    0.0000 </r>
       <r>   49.5500    0.0000 </r>
       <r>   49.5500    0.0000 </r>
       <r>   50.2672    0.0000 </r>
       <r>   51.3499    0.0000 </r>
       <r>   52.2424    0.0000 </r>
       <r>   52.3048    0.0000 </r>
       <r>   52.3048    0.0000 </r>
       <r>   53.9939    0.0000 </r>
       <r>   53.9939    0.0000 </r>
       <r>   54.0001    0.0000 </r>
       <r>   57.4417    0.0000 </r>
       <r>   59.4077    0.0000 </r>
       <r>   59.4077    0.0000 </r>
       <r>   60.5767    0.0000 </r>
       <r>   62.4616    0.0000 </r>
       <r>   62.4616    0.0000 </r>
       <r>   63.7412    0.0000 </r>
       <r>   63.7412    0.0000 </r>
       <r>   65.3749    0.0000 </r>
       <r>   65.4240    0.0000 </r>
       <r>   66.5753    0.0000 </r>
       <r>   67.0004    0.0000 </r>
       <r>   67.0004    0.0000 </r>
       <r>   69.6924    0.0000 </r>
       <r>   69.7967    0.0000 </r>
       <r>   69.7967    0.0000 </r>
       <r>   70.5495    0.0000 </r>
       <r>   70.5495    0.0000 </r>
       <r>   71.2732    0.0000 </r>
       <r>   71.2732    0.0000 </r>
       <r>   71.6601    0.0000 </r>
       <r>   71.8450    0.0000 </r>
       <r>   72.7639    0.0000 </r>
       <r>   72.7639    0.0000 </r>
       <r>   74.2074    0.0000 </r>
       <r>   74.9640    0.0000 </r>
       <r>   75.4655    0.0000 </r>
       <r>   75.4655    0.0000 </r>
       <r>   75.8545    0.0000 </r>
       <r>   75.8545    0.0000 </r>
       <r>   76.6725    0.0000 </r>
       <r>   77.3879    0.0000 </r>
       <r>   78.2056    0.0000 </r>
       <r>   78.2056    0.0000 </r>
       <r>   78.5587    0.0000 </r>
       <r>   78.5587    0.0000 </r>
       <r>   78.6753    0.0000 </r>
       <r>   79.1009    0.0000 </r>
       <r>   79.7749    0.0000 </r>
       <r>   79.7749    0.0000 </r>
       <r>   80.4861    0.0000 </r>
       <r>   80.4861    0.0000 </r>
       <r>   81.2495    0.0000 </r>
       <r>   81.2495    0.0000 </r>
       <r>   82.8605    0.0000 </r>
       <r>   83.5222    0.0000 </r>
       <r>   83.5765    0.0000 </r>
       <r>   84.2798    0.0000 </r>
       <r>   84.2798    0.0000 </r>
       <r>   84.3617    0.0000 </r>
       <r>   84.5499    0.0000 </r>
       <r>   85.9255    0.0000 </r>
       <r>   85.9255    0.0000 </r>
       <r>   86.8980    0.0000 </r>
       <r>   86.8980    0.0000 </r>
       <r>   88.2389    0.0000 </r>
       <r>   88.2389    0.0000 </r>
       <r>   88.5931    0.0000 </r>
      </set>
      <set comment="kpoint 6">
       <r>  -28.0531    1.0000 </r>
       <r>  -28.0447    1.0000 </r>
       <r>  -28.0441    1.0000 </r>
       <r>  -28.0441    1.0000 </r>
       <r>  -28.0425    1.0000 </r>
       <r>  -21.0506    1.0000 </r>
       <r>    0.5341    1.0000 </r>
       <r>    1.5213    1.0000 </r>
       <r>    1.5213    1.0000 </r>
       <r>    5.8104    0.0000 </r>
       <r>    9.3125    0.0000 </r>
       <r>   10.7964    0.0000 </r>
       <r>   11.7322    0.0000 </r>
       <r>   11.7322    0.0000 </r>
       <r>   13.6422    0.0000 </r>
       <r>   14.2353    0.0000 </r>
       <r>   14.2353    0.0000 </r>
       <r>   14.3514    0.0000 </r>
       <r>   15.7218    0.0000 </r>
       <r>   19.0682    0.0000 </r>
       <r>   19.4187    0.0000 </r>
       <r>   19.9169    0.0000 </r>
       <r>   19.9169    0.0000 </r>
       <r>   23.4848    0.0000 </r>
       <r>   25.2180    0.0000 </r>
       <r>   25.2180    0.0000 </r>
       <r>   25.5162    0.0000 </r>
       <r>   26.7962    0.0000 </r>
       <r>   26.7962    0.0000 </r>
       <r>   27.7816    0.0000 </r>
       <r>   29.8109    0.0000 </r>
       <r>   30.4466    0.0000 </r>
       <r>   31.2708    0.0000 </r>
       <r>   34.0154    0.0000 </r>
       <r>   34.0154    0.0000 </r>
       <r>   35.1508    0.0000 </r>
       <r>   35.2664    0.0000 </r>
       <r>   35.2664    0.0000 </r>
       <r>   36.4839    0.0000 </r>
       <r>   36.9263    0.0000 </r>
       <r>   37.7537    0.0000 </r>
       <r>   38.3492    0.0000 </r>
       <r>   38.3492    0.0000 </r>
       <r>   39.3613    0.0000 </r>
       <r>   40.5884    0.0000 </r>
       <r>   41.0163    0.0000 </r>
       <r>   41.0163    0.0000 </r>
       <r>   41.6646    0.0000 </r>
       <r>   42.1902    0.0000 </r>
       <r>   42.1902    0.0000 </r>
       <r>   42.6352    0.0000 </r>
       <r>   43.2370    0.0000 </r>
       <r>   43.9895    0.0000 </r>
       <r>   44.5942    0.0000 </r>
       <r>   44.5942    0.0000 </r>
       <r>   44.9431    0.0000 </r>
       <r>   46.5176    0.0000 </r>
       <r>   46.5176    0.0000 </r>
       <r>   48.3591    0.0000 </r>
       <r>   48.4030    0.0000 </r>
       <r>   50.2169    0.0000 </r>
       <r>   51.2044    0.0000 </r>
       <r>   51.5273    0.0000 </r>
       <r>   51.5273    0.0000 </r>
       <r>   52.2187    0.0000 </r>
       <r>   52.7400    0.0000 </r>
       <r>   52.7400    0.0000 </r>
       <r>   53.3660    0.0000 </r>
       <r>   55.5011    0.0000 </r>
       <r>   55.5011    0.0000 </r>
       <r>   57.1704    0.0000 </r>
       <r>   58.6998    0.0000 </r>
       <r>   59.3023    0.0000 </r>
       <r>   60.5111    0.0000 </r>
       <r>   62.1190    0.0000 </r>
       <r>   62.1190    0.0000 </r>
       <r>   63.9775    0.0000 </r>
       <r>   64.0672    0.0000 </r>
       <r>   64.0672    0.0000 </r>
       <r>   64.6949    0.0000 </r>
       <r>   65.4521    0.0000 </r>
       <r>   66.8886    0.0000 </r>
       <r>   68.2787    0.0000 </r>
       <r>   68.2787    0.0000 </r>
       <r>   69.2650    0.0000 </r>
       <r>   70.0055    0.0000 </r>
       <r>   70.0110    0.0000 </r>
       <r>   70.1481    0.0000 </r>
       <r>   70.1481    0.0000 </r>
       <r>   70.8512    0.0000 </r>
       <r>   71.6963    0.0000 </r>
       <r>   71.6963    0.0000 </r>
       <r>   72.7042    0.0000 </r>
       <r>   73.3640    0.0000 </r>
       <r>   73.3640    0.0000 </r>
       <r>   73.3892    0.0000 </r>
       <r>   74.0890    0.0000 </r>
       <r>   75.3298    0.0000 </r>
       <r>   75.8360    0.0000 </r>
       <r>   76.4320    0.0000 </r>
       <r>   76.4320    0.0000 </r>
       <r>   76.9379    0.0000 </r>
       <r>   78.3334    0.0000 </r>
       <r>   78.4238    0.0000 </r>
       <r>   78.4238    0.0000 </r>
       <r>   78.5540    0.0000 </r>
       <r>   79.0559    0.0000 </r>
       <r>   80.3462    0.0000 </r>
       <r>   80.3462    0.0000 </r>
       <r>   80.6443    0.0000 </r>
       <r>   81.2927    0.0000 </r>
       <r>   81.3381    0.0000 </r>
       <r>   81.3381    0.0000 </r>
       <r>   81.6325    0.0000 </r>
       <r>   81.8948    0.0000 </r>
       <r>   83.4234    0.0000 </r>
       <r>   83.4234    0.0000 </r>
       <r>   83.9937    0.0000 </r>
       <r>   84.4984    0.0000 </r>
       <r>   84.8652    0.0000 </r>
       <r>   85.9935    0.0000 </r>
       <r>   85.9935    0.0000 </r>
       <r>   87.1780    0.0000 </r>
       <r>   87.1780    0.0000 </r>
       <r>   87.3956    0.0000 </r>
       <r>   87.8465    0.0000 </r>
       <r>   88.5938    0.0000 </r>
       <r>   88.8907    0.0000 </r>
      </set>
      <set comment="kpoint 7">
       <r>  -28.0486    1.0000 </r>
       <r>  -28.0484    1.0000 </r>
       <r>  -28.0426    1.0000 </r>
       <r>  -28.0405    1.0000 </r>
       <r>  -28.0335    1.0000 </r>
       <r>  -21.0101    1.0000 </r>
       <r>   -0.4299    1.0000 </r>
       <r>    1.2065    1.0000 </r>
       <r>    1.2743    1.0000 </r>
       <r>    7.0013    0.0000 </r>
       <r>    9.3315    0.0000 </r>
       <r>    9.7827    0.0000 </r>
       <r>   11.8359    0.0000 </r>
       <r>   12.9759    0.0000 </r>
       <r>   13.6195    0.0000 </r>
       <r>   14.2560    0.0000 </r>
       <r>   16.0554    0.0000 </r>
       <r>   16.3527    0.0000 </r>
       <r>   17.5131    0.0000 </r>
       <r>   18.2728    0.0000 </r>
       <r>   18.5342    0.0000 </r>
       <r>   19.9503    0.0000 </r>
       <r>   20.7084    0.0000 </r>
       <r>   21.8055    0.0000 </r>
       <r>   24.2932    0.0000 </r>
       <r>   24.7649    0.0000 </r>
       <r>   24.9563    0.0000 </r>
       <r>   25.6716    0.0000 </r>
       <r>   26.1355    0.0000 </r>
       <r>   27.5768    0.0000 </r>
       <r>   29.8807    0.0000 </r>
       <r>   30.5067    0.0000 </r>
       <r>   31.2597    0.0000 </r>
       <r>   32.2578    0.0000 </r>
       <r>   32.4781    0.0000 </r>
       <r>   32.9856    0.0000 </r>
       <r>   35.1583    0.0000 </r>
       <r>   35.1963    0.0000 </r>
       <r>   35.8158    0.0000 </r>
       <r>   36.3330    0.0000 </r>
       <r>   36.9272    0.0000 </r>
       <r>   37.0602    0.0000 </r>
       <r>   37.4841    0.0000 </r>
       <r>   39.3274    0.0000 </r>
       <r>   39.4612    0.0000 </r>
       <r>   41.1907    0.0000 </r>
       <r>   41.4706    0.0000 </r>
       <r>   42.3123    0.0000 </r>
       <r>   42.4980    0.0000 </r>
       <r>   42.6028    0.0000 </r>
       <r>   43.3520    0.0000 </r>
       <r>   43.7753    0.0000 </r>
       <r>   45.2426    0.0000 </r>
       <r>   45.4910    0.0000 </r>
       <r>   46.0206    0.0000 </r>
       <r>   46.3579    0.0000 </r>
       <r>   46.5746    0.0000 </r>
       <r>   49.5808    0.0000 </r>
       <r>   49.9849    0.0000 </r>
       <r>   50.3718    0.0000 </r>
       <r>   51.0326    0.0000 </r>
       <r>   51.5281    0.0000 </r>
       <r>   52.7635    0.0000 </r>
       <r>   53.8867    0.0000 </r>
       <r>   54.0534    0.0000 </r>
       <r>   54.2540    0.0000 </r>
       <r>   55.3244    0.0000 </r>
       <r>   55.8541    0.0000 </r>
       <r>   56.1980    0.0000 </r>
       <r>   56.3381    0.0000 </r>
       <r>   58.3419    0.0000 </r>
       <r>   58.7218    0.0000 </r>
       <r>   59.0490    0.0000 </r>
       <r>   59.5810    0.0000 </r>
       <r>   60.0351    0.0000 </r>
       <r>   61.9206    0.0000 </r>
       <r>   62.1845    0.0000 </r>
       <r>   62.7544    0.0000 </r>
       <r>   63.0509    0.0000 </r>
       <r>   63.7199    0.0000 </r>
       <r>   64.1407    0.0000 </r>
       <r>   64.5930    0.0000 </r>
       <r>   65.3000    0.0000 </r>
       <r>   65.7840    0.0000 </r>
       <r>   65.8589    0.0000 </r>
       <r>   66.7441    0.0000 </r>
       <r>   68.5210    0.0000 </r>
       <r>   68.8334    0.0000 </r>
       <r>   69.7868    0.0000 </r>
       <r>   70.1360    0.0000 </r>
       <r>   70.8762    0.0000 </r>
       <r>   71.5790    0.0000 </r>
       <r>   71.9395    0.0000 </r>
       <r>   72.7562    0.0000 </r>
       <r>   73.0322    0.0000 </r>
       <r>   73.0887    0.0000 </r>
       <r>   74.0339    0.0000 </r>
       <r>   74.2800    0.0000 </r>
       <r>   75.6793    0.0000 </r>
       <r>   75.9512    0.0000 </r>
       <r>   76.7636    0.0000 </r>
       <r>   76.9729    0.0000 </r>
       <r>   77.2363    0.0000 </r>
       <r>   77.6873    0.0000 </r>
       <r>   78.0076    0.0000 </r>
       <r>   78.4977    0.0000 </r>
       <r>   79.0731    0.0000 </r>
       <r>   79.7801    0.0000 </r>
       <r>   80.2935    0.0000 </r>
       <r>   80.8128    0.0000 </r>
       <r>   81.7310    0.0000 </r>
       <r>   82.3469    0.0000 </r>
       <r>   82.4392    0.0000 </r>
       <r>   83.2255    0.0000 </r>
       <r>   83.2325    0.0000 </r>
       <r>   83.8557    0.0000 </r>
       <r>   84.3479    0.0000 </r>
       <r>   84.3874    0.0000 </r>
       <r>   85.2200    0.0000 </r>
       <r>   85.6656    0.0000 </r>
       <r>   86.1584    0.0000 </r>
       <r>   86.5377    0.0000 </r>
       <r>   87.1293    0.0000 </r>
       <r>   87.4931    0.0000 </r>
       <r>   87.8643    0.0000 </r>
       <r>   88.2259    0.0000 </r>
       <r>   88.7620    0.0000 </r>
       <r>   89.2030    0.0000 </r>
      </set>
      <set comment="kpoint 8">
       <r>  -28.0526    1.0000 </r>
       <r>  -28.0423    1.0000 </r>
       <r>  -28.0385    1.0000 </r>
       <r>  -28.0375    1.0000 </r>
       <r>  -28.0328    1.0000 </r>
       <r>  -20.9772    1.0000 </r>
       <r>   -1.0063    1.0000 </r>
       <r>    0.8046    1.0000 </r>
       <r>    1.2407    1.0000 </r>
       <r>    7.2916    0.0000 </r>
       <r>    9.2686    0.0000 </r>
       <r>   11.2801    0.0000 </r>
       <r>   11.3135    0.0000 </r>
       <r>   13.1528    0.0000 </r>
       <r>   14.0202    0.0000 </r>
       <r>   14.6734    0.0000 </r>
       <r>   16.6533    0.0000 </r>
       <r>   17.0587    0.0000 </r>
       <r>   18.2617    0.0000 </r>
       <r>   18.4208    0.0000 </r>
       <r>   18.5515    0.0000 </r>
       <r>   19.5013    0.0000 </r>
       <r>   20.0770    0.0000 </r>
       <r>   22.9528    0.0000 </r>
       <r>   24.0065    0.0000 </r>
       <r>   25.1516    0.0000 </r>
       <r>   25.2606    0.0000 </r>
       <r>   25.4824    0.0000 </r>
       <r>   25.4872    0.0000 </r>
       <r>   27.5622    0.0000 </r>
       <r>   28.4008    0.0000 </r>
       <r>   29.2739    0.0000 </r>
       <r>   29.3145    0.0000 </r>
       <r>   30.8825    0.0000 </r>
       <r>   31.7316    0.0000 </r>
       <r>   32.5226    0.0000 </r>
       <r>   32.7891    0.0000 </r>
       <r>   33.9884    0.0000 </r>
       <r>   34.7709    0.0000 </r>
       <r>   34.9989    0.0000 </r>
       <r>   36.7607    0.0000 </r>
       <r>   37.2103    0.0000 </r>
       <r>   38.9689    0.0000 </r>
       <r>   38.9871    0.0000 </r>
       <r>   39.7815    0.0000 </r>
       <r>   40.5582    0.0000 </r>
       <r>   41.1700    0.0000 </r>
       <r>   41.8055    0.0000 </r>
       <r>   44.5142    0.0000 </r>
       <r>   45.0111    0.0000 </r>
       <r>   45.0886    0.0000 </r>
       <r>   45.4489    0.0000 </r>
       <r>   46.2431    0.0000 </r>
       <r>   47.2673    0.0000 </r>
       <r>   48.0613    0.0000 </r>
       <r>   48.1101    0.0000 </r>
       <r>   48.9817    0.0000 </r>
       <r>   49.3588    0.0000 </r>
       <r>   50.3899    0.0000 </r>
       <r>   51.1298    0.0000 </r>
       <r>   51.6219    0.0000 </r>
       <r>   51.8301    0.0000 </r>
       <r>   52.3613    0.0000 </r>
       <r>   54.0112    0.0000 </r>
       <r>   54.1707    0.0000 </r>
       <r>   55.2782    0.0000 </r>
       <r>   55.7095    0.0000 </r>
       <r>   56.0136    0.0000 </r>
       <r>   56.1523    0.0000 </r>
       <r>   57.2795    0.0000 </r>
       <r>   57.6011    0.0000 </r>
       <r>   57.9813    0.0000 </r>
       <r>   59.5669    0.0000 </r>
       <r>   59.7931    0.0000 </r>
       <r>   59.9187    0.0000 </r>
       <r>   60.2287    0.0000 </r>
       <r>   60.7295    0.0000 </r>
       <r>   61.1453    0.0000 </r>
       <r>   62.2005    0.0000 </r>
       <r>   63.9063    0.0000 </r>
       <r>   64.1375    0.0000 </r>
       <r>   64.4796    0.0000 </r>
       <r>   65.4771    0.0000 </r>
       <r>   65.7976    0.0000 </r>
       <r>   66.0265    0.0000 </r>
       <r>   66.7049    0.0000 </r>
       <r>   67.2902    0.0000 </r>
       <r>   68.1010    0.0000 </r>
       <r>   68.3951    0.0000 </r>
       <r>   69.4335    0.0000 </r>
       <r>   69.7768    0.0000 </r>
       <r>   70.4472    0.0000 </r>
       <r>   70.9064    0.0000 </r>
       <r>   71.2406    0.0000 </r>
       <r>   73.1638    0.0000 </r>
       <r>   73.2824    0.0000 </r>
       <r>   74.1015    0.0000 </r>
       <r>   74.6979    0.0000 </r>
       <r>   75.1467    0.0000 </r>
       <r>   75.6427    0.0000 </r>
       <r>   75.7845    0.0000 </r>
       <r>   76.4193    0.0000 </r>
       <r>   76.5646    0.0000 </r>
       <r>   76.8787    0.0000 </r>
       <r>   77.2124    0.0000 </r>
       <r>   77.6175    0.0000 </r>
       <r>   78.2872    0.0000 </r>
       <r>   78.7380    0.0000 </r>
       <r>   80.0414    0.0000 </r>
       <r>   80.2614    0.0000 </r>
       <r>   80.4303    0.0000 </r>
       <r>   81.2828    0.0000 </r>
       <r>   81.6321    0.0000 </r>
       <r>   81.8781    0.0000 </r>
       <r>   82.4462    0.0000 </r>
       <r>   83.1153    0.0000 </r>
       <r>   84.4812    0.0000 </r>
       <r>   84.8608    0.0000 </r>
       <r>   85.0638    0.0000 </r>
       <r>   85.9313    0.0000 </r>
       <r>   86.3447    0.0000 </r>
       <r>   87.0375    0.0000 </r>
       <r>   87.5369    0.0000 </r>
       <r>   87.6167    0.0000 </r>
       <r>   88.3092    0.0000 </r>
       <r>   89.9161    0.0000 </r>
       <r>   90.3851    0.0000 </r>
       <r>   90.5565    0.0000 </r>
      </set>
      <set comment="kpoint 9">
       <r>  -28.0555    1.0000 </r>
       <r>  -28.0507    1.0000 </r>
       <r>  -28.0432    1.0000 </r>
       <r>  -28.0403    1.0000 </r>
       <r>  -28.0383    1.0000 </r>
       <r>  -20.9855    1.0000 </r>
       <r>   -0.8606    1.0000 </r>
       <r>    0.6890    1.0000 </r>
       <r>    1.4482    1.0000 </r>
       <r>    7.3540    0.0000 </r>
       <r>    9.4176    0.0000 </r>
       <r>   11.0936    0.0000 </r>
       <r>   11.0955    0.0000 </r>
       <r>   13.0073    0.0000 </r>
       <r>   13.5098    0.0000 </r>
       <r>   14.1764    0.0000 </r>
       <r>   16.7854    0.0000 </r>
       <r>   17.3315    0.0000 </r>
       <r>   18.0634    0.0000 </r>
       <r>   18.4551    0.0000 </r>
       <r>   18.8336    0.0000 </r>
       <r>   19.5870    0.0000 </r>
       <r>   20.0354    0.0000 </r>
       <r>   22.6262    0.0000 </r>
       <r>   23.9482    0.0000 </r>
       <r>   24.7967    0.0000 </r>
       <r>   25.4264    0.0000 </r>
       <r>   25.9959    0.0000 </r>
       <r>   26.7298    0.0000 </r>
       <r>   27.1870    0.0000 </r>
       <r>   27.9551    0.0000 </r>
       <r>   28.4457    0.0000 </r>
       <r>   29.7589    0.0000 </r>
       <r>   31.7494    0.0000 </r>
       <r>   32.1042    0.0000 </r>
       <r>   32.5393    0.0000 </r>
       <r>   34.0149    0.0000 </r>
       <r>   34.3821    0.0000 </r>
       <r>   34.6468    0.0000 </r>
       <r>   35.2027    0.0000 </r>
       <r>   36.8176    0.0000 </r>
       <r>   36.8277    0.0000 </r>
       <r>   38.3918    0.0000 </r>
       <r>   39.3803    0.0000 </r>
       <r>   40.0985    0.0000 </r>
       <r>   40.3231    0.0000 </r>
       <r>   41.3613    0.0000 </r>
       <r>   41.5362    0.0000 </r>
       <r>   42.8807    0.0000 </r>
       <r>   43.6064    0.0000 </r>
       <r>   45.4860    0.0000 </r>
       <r>   45.7019    0.0000 </r>
       <r>   46.6803    0.0000 </r>
       <r>   47.4500    0.0000 </r>
       <r>   47.4984    0.0000 </r>
       <r>   48.1395    0.0000 </r>
       <r>   48.6809    0.0000 </r>
       <r>   49.4742    0.0000 </r>
       <r>   50.4309    0.0000 </r>
       <r>   50.5833    0.0000 </r>
       <r>   51.7860    0.0000 </r>
       <r>   51.9207    0.0000 </r>
       <r>   52.7337    0.0000 </r>
       <r>   53.0961    0.0000 </r>
       <r>   53.9472    0.0000 </r>
       <r>   54.1727    0.0000 </r>
       <r>   54.7387    0.0000 </r>
       <r>   55.9565    0.0000 </r>
       <r>   56.1847    0.0000 </r>
       <r>   57.5842    0.0000 </r>
       <r>   57.9902    0.0000 </r>
       <r>   58.2063    0.0000 </r>
       <r>   59.0740    0.0000 </r>
       <r>   59.5820    0.0000 </r>
       <r>   60.0261    0.0000 </r>
       <r>   60.8322    0.0000 </r>
       <r>   61.4091    0.0000 </r>
       <r>   62.3789    0.0000 </r>
       <r>   62.6451    0.0000 </r>
       <r>   63.2621    0.0000 </r>
       <r>   64.2832    0.0000 </r>
       <r>   64.9015    0.0000 </r>
       <r>   65.0240    0.0000 </r>
       <r>   65.8093    0.0000 </r>
       <r>   66.2655    0.0000 </r>
       <r>   66.5917    0.0000 </r>
       <r>   67.6476    0.0000 </r>
       <r>   68.1202    0.0000 </r>
       <r>   68.5398    0.0000 </r>
       <r>   69.4028    0.0000 </r>
       <r>   70.3448    0.0000 </r>
       <r>   70.3705    0.0000 </r>
       <r>   71.3348    0.0000 </r>
       <r>   71.6890    0.0000 </r>
       <r>   72.1196    0.0000 </r>
       <r>   72.6679    0.0000 </r>
       <r>   73.5328    0.0000 </r>
       <r>   73.9761    0.0000 </r>
       <r>   74.9549    0.0000 </r>
       <r>   75.6258    0.0000 </r>
       <r>   75.6861    0.0000 </r>
       <r>   76.6241    0.0000 </r>
       <r>   76.7236    0.0000 </r>
       <r>   77.0569    0.0000 </r>
       <r>   78.0754    0.0000 </r>
       <r>   78.8248    0.0000 </r>
       <r>   79.3107    0.0000 </r>
       <r>   79.5536    0.0000 </r>
       <r>   80.1844    0.0000 </r>
       <r>   80.3402    0.0000 </r>
       <r>   81.1664    0.0000 </r>
       <r>   81.4424    0.0000 </r>
       <r>   82.6792    0.0000 </r>
       <r>   83.1938    0.0000 </r>
       <r>   83.4736    0.0000 </r>
       <r>   83.5046    0.0000 </r>
       <r>   84.0814    0.0000 </r>
       <r>   84.4904    0.0000 </r>
       <r>   84.9016    0.0000 </r>
       <r>   86.2841    0.0000 </r>
       <r>   86.3049    0.0000 </r>
       <r>   86.6633    0.0000 </r>
       <r>   86.8146    0.0000 </r>
       <r>   87.2825    0.0000 </r>
       <r>   88.2542    0.0000 </r>
       <r>   88.4753    0.0000 </r>
       <r>   89.4481    0.0000 </r>
       <r>   89.4632    0.0000 </r>
      </set>
      <set comment="kpoint 10">
       <r>  -28.0460    1.0000 </r>
       <r>  -28.0391    1.0000 </r>
       <r>  -28.0382    1.0000 </r>
       <r>  -28.0339    1.0000 </r>
       <r>  -28.0304    1.0000 </r>
       <r>  -21.0263    1.0000 </r>
       <r>   -0.1656    1.0000 </r>
       <r>    1.1078    1.0000 </r>
       <r>    1.7136    1.0000 </r>
       <r>    6.5776    0.0000 </r>
       <r>    9.6960    0.0000 </r>
       <r>   10.3206    0.0000 </r>
       <r>   11.4744    0.0000 </r>
       <r>   11.6400    0.0000 </r>
       <r>   13.6074    0.0000 </r>
       <r>   13.9370    0.0000 </r>
       <r>   15.2160    0.0000 </r>
       <r>   15.7445    0.0000 </r>
       <r>   17.6342    0.0000 </r>
       <r>   18.2013    0.0000 </r>
       <r>   19.7094    0.0000 </r>
       <r>   19.9123    0.0000 </r>
       <r>   20.2544    0.0000 </r>
       <r>   22.3071    0.0000 </r>
       <r>   23.9422    0.0000 </r>
       <r>   24.8265    0.0000 </r>
       <r>   25.3077    0.0000 </r>
       <r>   26.7833    0.0000 </r>
       <r>   26.9404    0.0000 </r>
       <r>   28.2549    0.0000 </r>
       <r>   29.3846    0.0000 </r>
       <r>   29.7129    0.0000 </r>
       <r>   31.3031    0.0000 </r>
       <r>   32.5377    0.0000 </r>
       <r>   33.2323    0.0000 </r>
       <r>   33.3624    0.0000 </r>
       <r>   35.2841    0.0000 </r>
       <r>   36.0937    0.0000 </r>
       <r>   36.4793    0.0000 </r>
       <r>   37.1792    0.0000 </r>
       <r>   37.2539    0.0000 </r>
       <r>   37.8036    0.0000 </r>
       <r>   37.8309    0.0000 </r>
       <r>   38.4053    0.0000 </r>
       <r>   39.4434    0.0000 </r>
       <r>   39.8462    0.0000 </r>
       <r>   40.5917    0.0000 </r>
       <r>   41.8598    0.0000 </r>
       <r>   42.0727    0.0000 </r>
       <r>   42.0823    0.0000 </r>
       <r>   42.5894    0.0000 </r>
       <r>   42.8088    0.0000 </r>
       <r>   45.9824    0.0000 </r>
       <r>   46.6864    0.0000 </r>
       <r>   47.1703    0.0000 </r>
       <r>   47.6349    0.0000 </r>
       <r>   48.1523    0.0000 </r>
       <r>   48.1570    0.0000 </r>
       <r>   48.6224    0.0000 </r>
       <r>   49.5503    0.0000 </r>
       <r>   49.7440    0.0000 </r>
       <r>   50.0398    0.0000 </r>
       <r>   51.1156    0.0000 </r>
       <r>   51.8630    0.0000 </r>
       <r>   54.2190    0.0000 </r>
       <r>   54.7048    0.0000 </r>
       <r>   54.8635    0.0000 </r>
       <r>   54.9214    0.0000 </r>
       <r>   55.4379    0.0000 </r>
       <r>   56.1798    0.0000 </r>
       <r>   56.7945    0.0000 </r>
       <r>   57.8229    0.0000 </r>
       <r>   59.5532    0.0000 </r>
       <r>   60.6112    0.0000 </r>
       <r>   61.1404    0.0000 </r>
       <r>   61.9758    0.0000 </r>
       <r>   62.8160    0.0000 </r>
       <r>   63.3230    0.0000 </r>
       <r>   63.8228    0.0000 </r>
       <r>   64.1592    0.0000 </r>
       <r>   64.4246    0.0000 </r>
       <r>   64.8306    0.0000 </r>
       <r>   66.1323    0.0000 </r>
       <r>   67.1177    0.0000 </r>
       <r>   67.2700    0.0000 </r>
       <r>   67.3338    0.0000 </r>
       <r>   68.5813    0.0000 </r>
       <r>   69.7646    0.0000 </r>
       <r>   69.8249    0.0000 </r>
       <r>   70.3677    0.0000 </r>
       <r>   71.6232    0.0000 </r>
       <r>   71.6810    0.0000 </r>
       <r>   72.0093    0.0000 </r>
       <r>   72.6831    0.0000 </r>
       <r>   72.8355    0.0000 </r>
       <r>   74.4334    0.0000 </r>
       <r>   74.5903    0.0000 </r>
       <r>   74.7155    0.0000 </r>
       <r>   75.7127    0.0000 </r>
       <r>   76.7056    0.0000 </r>
       <r>   77.1404    0.0000 </r>
       <r>   77.2439    0.0000 </r>
       <r>   77.8545    0.0000 </r>
       <r>   78.0737    0.0000 </r>
       <r>   78.1241    0.0000 </r>
       <r>   78.4154    0.0000 </r>
       <r>   78.8252    0.0000 </r>
       <r>   79.5807    0.0000 </r>
       <r>   80.3772    0.0000 </r>
       <r>   80.5472    0.0000 </r>
       <r>   80.6818    0.0000 </r>
       <r>   81.1152    0.0000 </r>
       <r>   81.3750    0.0000 </r>
       <r>   82.0113    0.0000 </r>
       <r>   82.2078    0.0000 </r>
       <r>   84.7795    0.0000 </r>
       <r>   85.0165    0.0000 </r>
       <r>   85.7721    0.0000 </r>
       <r>   85.9241    0.0000 </r>
       <r>   86.3517    0.0000 </r>
       <r>   86.8045    0.0000 </r>
       <r>   87.0215    0.0000 </r>
       <r>   87.1637    0.0000 </r>
       <r>   87.8105    0.0000 </r>
       <r>   88.1639    0.0000 </r>
       <r>   88.1807    0.0000 </r>
       <r>   88.5377    0.0000 </r>
       <r>   88.5913    0.0000 </r>
      </set>
      <set comment="kpoint 11">
       <r>  -28.0478    1.0000 </r>
       <r>  -28.0464    1.0000 </r>
       <r>  -28.0464    1.0000 </r>
       <r>  -28.0415    1.0000 </r>
       <r>  -28.0415    1.0000 </r>
       <r>  -21.0100    1.0000 </r>
       <r>   -0.7650    1.0000 </r>
       <r>    1.5519    1.0000 </r>
       <r>    1.5519    1.0000 </r>
       <r>    6.2289    0.0000 </r>
       <r>   10.8160    0.0000 </r>
       <r>   10.8160    0.0000 </r>
       <r>   10.9445    0.0000 </r>
       <r>   11.4594    0.0000 </r>
       <r>   13.3809    0.0000 </r>
       <r>   13.3809    0.0000 </r>
       <r>   16.8000    0.0000 </r>
       <r>   17.7346    0.0000 </r>
       <r>   17.7346    0.0000 </r>
       <r>   18.3212    0.0000 </r>
       <r>   18.3212    0.0000 </r>
       <r>   19.1630    0.0000 </r>
       <r>   20.2188    0.0000 </r>
       <r>   21.4137    0.0000 </r>
       <r>   25.0047    0.0000 </r>
       <r>   25.0047    0.0000 </r>
       <r>   25.0923    0.0000 </r>
       <r>   26.8967    0.0000 </r>
       <r>   27.0940    0.0000 </r>
       <r>   27.0940    0.0000 </r>
       <r>   30.9770    0.0000 </r>
       <r>   31.0623    0.0000 </r>
       <r>   31.0623    0.0000 </r>
       <r>   31.6779    0.0000 </r>
       <r>   31.6779    0.0000 </r>
       <r>   32.1203    0.0000 </r>
       <r>   33.7328    0.0000 </r>
       <r>   34.0560    0.0000 </r>
       <r>   35.3490    0.0000 </r>
       <r>   35.3490    0.0000 </r>
       <r>   36.2771    0.0000 </r>
       <r>   36.2771    0.0000 </r>
       <r>   39.3162    0.0000 </r>
       <r>   39.3162    0.0000 </r>
       <r>   40.6336    0.0000 </r>
       <r>   40.7905    0.0000 </r>
       <r>   40.7905    0.0000 </r>
       <r>   42.7135    0.0000 </r>
       <r>   42.8568    0.0000 </r>
       <r>   42.8568    0.0000 </r>
       <r>   43.8429    0.0000 </r>
       <r>   44.7699    0.0000 </r>
       <r>   45.1307    0.0000 </r>
       <r>   46.2392    0.0000 </r>
       <r>   46.2392    0.0000 </r>
       <r>   46.7192    0.0000 </r>
[...]
     <r>     6.5934     0.0000     0.0000     0.0000     0.0000     0.0000     0.0000 </r>
     <r>     6.6034     0.0000     0.0000     0.0000     0.0000     0.0000     0.0000 </r>
     <r>     6.6134     0.0000     0.0000     0.0000     0.0000     0.0000     0.0000 </r>
     <r>     6.6234     0.0000     0.0000     0.0000     0.0000     0.0000     0.0000 </r>
     <r>     6.6334     0.0000     0.0000     0.0000     0.0000     0.0000     0.0000 </r>
     <r>     6.6434     0.0000     0.0000     0.0000     0.0000     0.0000     0.0000 </r>
     <r>     6.6534     0.0000     0.0000     0.0000     0.0000     0.0000     0.0000 </r>
     <r>     6.6634     0.0000     0.0000     0.0000     0.0000     0.0000     0.0000 </r>
     <r>     6.6734     0.0000     0.0000     0.0000     0.0000     0.0000     0.0000 </r>
     <r>     6.6834     0.0000     0.0000     0.0000     0.0000     0.0000     0.0000 </r>
     <r>     6.6935     0.0000     0.0000     0.0000     0.0000     0.0000     0.0000 </r>
     <r>     6.7035     0.0000     0.0000     0.0000     0.0000     0.0000     0.0000 </r>
     <r>     6.7135     0.0000     0.0000     0.0000     0.0000     0.0000     0.0000 </r>
     <r>     6.7235     0.0000     0.0000     0.0000     0.0000     0.0000     0.0000 </r>
     <r>     6.7335     0.0000     0.0000     0.0000     0.0000     0.0000     0.0000 </r>
     <r>     6.7435     0.0000     0.0000     0.0000     0.0000     0.0000     0.0000 </r>
     <r>     6.7535     0.0000     0.0000     0.0000     0.0000     0.0000     0.0000 </r>
     <r>     6.7635     0.0000     0.0000     0.0000     0.0000     0.0000     0.0000 </r>
     <r>     6.7735     0.0000     0.0000     0.0000     0.0000     0.0000     0.0000 </r>
     <r>     6.7835     0.0000     0.0000     0.0000     0.0000     0.0000     0.0000 </r>
     <r>     6.7936     0.0000     0.0000     0.0000     0.0000     0.0000     0.0000 </r>
     <r>     6.8036     0.0000     0.0000     0.0000     0.0000     0.0000     0.0000 </r>
     <r>     6.8136     0.0000     0.0000     0.0000     0.0000     0.0000     0.0000 </r>
     <r>     6.8236     0.0000     0.0000     0.0000     0.0000     0.0000     0.0000 </r>
     <r>     6.8336     0.0000     0.0000     0.0000     0.0000     0.0000     0.0000 </r>
     <r>     6.8436     0.0000     0.0000     0.0000     0.0000     0.0000     0.0000 </r>
     <r>     6.8536     0.0000     0.0000     0.0000     0.0000     0.0000     0.0000 </r>
     <r>     6.8636     0.0000     0.0000     0.0000     0.0000     0.0000     0.0000 </r>
     <r>     6.8736     0.0000     0.0000     0.0000     0.0000     0.0000     0.0000 </r>
     <r>     6.8836     0.0000     0.0000     0.0000     0.0000     0.0000     0.0000 </r>
     <r>     6.8937     0.0000     0.0000     0.0000     0.0000     0.0000     0.0000 </r>
     <r>     6.9037     0.0000     0.0000     0.0000     0.0000     0.0000     0.0000 </r>
     <r>     6.9137     0.0000     0.0000     0.0000     0.0000     0.0000     0.0000 </r>
     <r>     6.9237     0.0000     0.0000     0.0000     0.0000     0.0000     0.0000 </r>
     <r>     6.9337     0.0000     0.0000     0.0000     0.0000     0.0000     0.0000 </r>
     <r>     6.9437     0.0000     0.0000     0.0000     0.0000     0.0000     0.0000 </r>
     <r>     6.9537     0.0000     0.0000     0.0000     0.0000     0.0000     0.0000 </r>
     <r>     6.9637     0.0000     0.0000     0.0000     0.0000     0.0000     0.0000 </r>
     <r>     6.9737     0.0000     0.0000     0.0000    -0.0000    -0.0000     0.0000 </r>
     <r>     6.9837     0.0340     0.0340     0.0340    -0.0000    -0.0000    -0.0000 </r>
     <r>     6.9938     0.0000     0.0000     0.0000     0.0000     0.0000     0.0000 </r>
     <r>     7.0038     1.0082     1.0082     1.0082     0.0000     0.0000     0.0000 </r>
     <r>     7.0138     0.0000     0.0000     0.0000     0.0000     0.0000     0.0000 </r>
     <r>     7.0238     0.0000     0.0000     0.0000     0.0000     0.0000     0.0000 </r>
    </set>
   </array>
  </conductivity>
  <dos>
   <i name="efermi">      2.02378569 </i>
   <total>
    <array>
     <dimension dim="1">gridpoints</dimension>
     <dimension dim="2">spin</dimension>
     <field>energy</field>
     <field>total</field>
     <field>integrated</field>
     <set>
      <set comment="spin 1">
       <r>   -34.0463     0.0000     0.0000 </r>
       <r>   -33.6077     0.0000     0.0000 </r>
       <r>   -33.1692     0.0000     0.0000 </r>
       <r>   -32.7307     0.0000     0.0000 </r>
       <r>   -32.2921     0.0000     0.0000 </r>
       <r>   -31.8536     0.0000     0.0000 </r>
       <r>   -31.4150     0.0000     0.0000 </r>
       <r>   -30.9765     0.0000     0.0000 </r>
       <r>   -30.5379     0.0000     0.0000 </r>
       <r>   -30.0994     0.0000     0.0000 </r>
       <r>   -29.6609     0.0000     0.0000 </r>
       <r>   -29.2223     0.0000     0.0000 </r>
       <r>   -28.7838     0.0000     0.0000 </r>
       <r>   -28.3452     0.0000     0.0000 </r>
       <r>   -27.9067     0.0000    10.0000 </r>
       <r>   -27.4682     0.0000    10.0000 </r>
       <r>   -27.0296     0.0000    10.0000 </r>
       <r>   -26.5911     0.0000    10.0000 </r>
       <r>   -26.1525     0.0000    10.0000 </r>
       <r>   -25.7140     0.0000    10.0000 </r>
       <r>   -25.2754     0.0000    10.0000 </r>
       <r>   -24.8369     0.0000    10.0000 </r>
       <r>   -24.3984     0.0000    10.0000 </r>
       <r>   -23.9598     0.0000    10.0000 </r>
       <r>   -23.5213     0.0000    10.0000 </r>
       <r>   -23.0827     0.0000    10.0000 </r>
       <r>   -22.6442     0.0000    10.0000 </r>
       <r>   -22.2056     0.0000    10.0000 </r>
       <r>   -21.7671     0.0000    10.0000 </r>
       <r>   -21.3286     0.0000    10.0000 </r>
       <r>   -20.8900     0.0000    12.0000 </r>
       <r>   -20.4515     0.0000    12.0000 </r>
       <r>   -20.0129     0.0000    12.0000 </r>
       <r>   -19.5744     0.0000    12.0000 </r>
       <r>   -19.1359     0.0000    12.0000 </r>
       <r>   -18.6973     0.0000    12.0000 </r>
       <r>   -18.2588     0.0000    12.0000 </r>
       <r>   -17.8202     0.0000    12.0000 </r>
       <r>   -17.3817     0.0000    12.0000 </r>
       <r>   -16.9431     0.0000    12.0000 </r>
       <r>   -16.5046     0.0000    12.0000 </r>
       <r>   -16.0661     0.0000    12.0000 </r>
       <r>   -15.6275     0.0000    12.0000 </r>
       <r>   -15.1890     0.0000    12.0000 </r>
       <r>   -14.7504     0.0000    12.0000 </r>
       <r>   -14.3119     0.0000    12.0000 </r>
       <r>   -13.8734     0.0000    12.0000 </r>
       <r>   -13.4348     0.0000    12.0000 </r>
       <r>   -12.9963     0.0000    12.0000 </r>
       <r>   -12.5577     0.0000    12.0000 </r>
       <r>   -12.1192     0.0000    12.0000 </r>
       <r>   -11.6806     0.0000    12.0000 </r>
       <r>   -11.2421     0.0000    12.0000 </r>
       <r>   -10.8036     0.0000    12.0000 </r>
       <r>   -10.3650     0.0000    12.0000 </r>
       <r>    -9.9265     0.0000    12.0000 </r>
       <r>    -9.4879     0.0000    12.0000 </r>
       <r>    -9.0494     0.0000    12.0000 </r>
       <r>    -8.6109     0.0000    12.0000 </r>
       <r>    -8.1723     0.0000    12.0000 </r>
       <r>    -7.7338     0.0000    12.0000 </r>
       <r>    -7.2952     0.0000    12.0000 </r>
       <r>    -6.8567     0.0000    12.0000 </r>
       <r>    -6.4181     0.0000    12.0000 </r>
       <r>    -5.9796     0.0000    12.0000 </r>
       <r>    -5.5411     0.0000    12.0000 </r>
       <r>    -5.1025     0.0000    12.0000 </r>
       <r>    -4.6640     0.0000    12.0000 </r>
       <r>    -4.2254     0.0000    12.0000 </r>
       <r>    -3.7869     0.0000    12.0000 </r>
       <r>    -3.3484     0.0000    12.0000 </r>
       <r>    -2.9098     0.0000    12.0000 </r>
       <r>    -2.4713     0.0000    12.0000 </r>
       <r>    -2.0327     0.0000    12.0000 </r>
       <r>    -1.5942     0.0000    12.0000 </r>
       <r>    -1.1556     0.0000    12.0370 </r>
       <r>    -0.7171     0.0000    12.8056 </r>
       <r>    -0.2786     0.0000    13.8611 </r>
       <r>     0.1600     0.0000    14.3056 </r>
       <r>     0.5985     0.0000    14.9907 </r>
       <r>     1.0371     0.0000    16.0463 </r>
       <r>     1.4756     0.0000    17.4537 </r>
       <r>     1.9142     0.0000    18.0000 </r>
       <r>     2.3527     0.0000    18.0000 </r>
       <r>     2.7912     0.0000    18.0000 </r>
       <r>     3.2298     0.0000    18.0000 </r>
       <r>     3.6683     0.0000    18.0000 </r>
       <r>     4.1069     0.0000    18.0093 </r>
       <r>     4.5454     0.0000    18.0093 </r>
       <r>     4.9839     0.0000    18.0093 </r>
       <r>     5.4225     0.0000    18.0833 </r>
       <r>     5.8610     0.0000    18.1389 </r>
       <r>     6.2996     0.0845    18.2500 </r>
       <r>     6.7381     0.0000    18.3889 </r>
       <r>     7.1767     0.0000    18.8889 </r>
       <r>     7.6152     0.0000    19.4444 </r>
       <r>     8.0537     0.0000    19.8056 </r>
       <r>     8.4923     0.0000    19.8611 </r>
       <r>     8.9308     0.0000    20.5278 </r>
       <r>     9.3694     0.0000    21.5833 </r>
       <r>     9.8079     0.0000    22.1389 </r>
       <r>    10.2464     0.0000    22.3241 </r>
       <r>    10.6850     0.0000    22.5093 </r>
       <r>    11.1235     0.0000    23.6852 </r>
       <r>    11.5621     0.0000    25.1389 </r>
       <r>    12.0006     0.0000    25.6944 </r>
       <r>    12.4392     0.0000    25.8796 </r>
       <r>    12.8777     0.0000    26.2500 </r>
       <r>    13.3162     0.0000    27.7315 </r>
       <r>    13.7548     0.0000    28.6296 </r>
       <r>    14.1933     0.0000    29.5278 </r>
       <r>    14.6319     0.0000    30.4907 </r>
       <r>    15.0704     0.0000    31.2130 </r>
       <r>    15.5089     0.0000    31.6019 </r>
       <r>    15.9475     0.0000    32.3611 </r>
       <r>    16.3860     0.2534    33.3981 </r>
       <r>    16.8246     0.0000    34.3148 </r>
       <r>    17.2631     0.0000    34.8889 </r>
       <r>    17.7017     0.0000    36.1944 </r>
       <r>    18.1402     0.0000    38.0093 </r>
       <r>    18.5787     0.0000    40.7037 </r>
       <r>    19.0173     0.0000    41.4537 </r>
       <r>    19.4558     0.0000    42.9722 </r>
       <r>    19.8944     0.0000    43.6759 </r>
       <r>    20.3329     0.0000    45.1111 </r>
       <r>    20.7714     0.0000    45.6667 </r>
       <r>    21.2100     0.0000    46.1111 </r>
       <r>    21.6485     0.0000    46.1852 </r>
       <r>    22.0871     0.0000    46.4074 </r>
       <r>    22.5256     0.0000    46.9907 </r>
       <r>    22.9642     0.0000    48.3796 </r>
       <r>    23.4027     0.0000    48.8796 </r>
       <r>    23.8412     0.0000    49.4259 </r>
       <r>    24.2798     0.0000    50.8333 </r>
       <r>    24.7183     0.0000    52.1111 </r>
       <r>    25.1569     0.5067    54.1111 </r>
       <r>    25.5954     0.0000    56.0556 </r>
       <r>    26.0339     0.0000    56.7130 </r>
       <r>    26.4725     0.0000    57.4630 </r>
       <r>    26.9110     0.0000    57.9815 </r>
       <r>    27.3496     0.0000    58.6019 </r>
       <r>    27.7881     0.1267    59.8241 </r>
       <r>    28.2267     0.0000    60.2685 </r>
       <r>    28.6652     0.2534    61.5648 </r>
       <r>    29.1037     0.0000    62.0093 </r>
       <r>    29.5423     0.0000    62.6944 </r>
       <r>    29.9808     0.0000    64.3333 </r>
       <r>    30.4194     0.0000    64.7037 </r>
       <r>    30.8579     0.0000    65.3426 </r>
       <r>    31.2965     0.0000    66.7870 </r>
       <r>    31.7350     0.5067    67.9074 </r>
       <r>    32.1735     0.0000    69.3889 </r>
       <r>    32.6121     0.0000    71.2037 </r>
       <r>    33.0506     0.0000    72.2130 </r>
       <r>    33.4892     0.0000    72.9722 </r>
       <r>    33.9277     0.0337    73.6166 </r>
       <r>    34.3662     0.0000    74.5278 </r>
       <r>    34.8048     0.0000    75.6389 </r>
       <r>    35.2433     0.0000    76.9167 </r>
       <r>    35.6819     0.0000    78.2778 </r>
       <r>    36.1204     0.0000    79.7963 </r>
       <r>    36.5590     0.0000    80.9167 </r>
       <r>    36.9975     0.0000    82.2130 </r>
       <r>    37.4360     0.2529    83.4350 </r>
       <r>    37.8746     0.0000    84.1574 </r>
       <r>    38.3131     0.0000    84.3796 </r>
       <r>    38.7517     0.0000    85.0833 </r>
       <r>    39.1902     0.0000    86.6944 </r>
       <r>    39.6287     0.0000    88.4537 </r>
       <r>    40.0673     0.0000    89.1574 </r>
       <r>    40.5058     0.0000    89.7963 </r>
       <r>    40.9444     0.0000    91.4259 </r>
       <r>    41.3829     0.1520    92.9648 </r>
       <r>    41.8215     0.0000    94.3796 </r>
       <r>    42.2600     0.0000    95.4167 </r>
       <r>    42.6985     0.0000    96.7593 </r>
       <r>    43.1371     0.0000    97.7315 </r>
       <r>    43.5756     0.0000    98.4907 </r>
       <r>    44.0142     0.0000    99.9815 </r>
       <r>    44.4527     0.0000   100.7222 </r>
       <r>    44.8912     0.0000   101.5370 </r>
       <r>    45.3298     0.3839   103.3813 </r>
       <r>    45.7683     0.0000   104.9167 </r>
       <r>    46.2069     0.0000   105.7963 </r>
       <r>    46.6454     0.0000   107.3241 </r>
       <r>    47.0840     0.0211   108.0370 </r>
       <r>    47.5225     0.0000   110.3241 </r>
       <r>    47.9610     0.0000   110.9167 </r>
       <r>    48.3996     0.0000   112.6389 </r>
       <r>    48.8381     0.0000   113.6574 </r>
       <r>    49.2767     0.0000   114.7685 </r>
       <r>    49.7152     0.0000   115.9722 </r>
       <r>    50.1537     0.0000   117.0463 </r>
       <r>    50.5923     0.0000   118.8056 </r>
       <r>    51.0308     0.0027   119.7697 </r>
       <r>    51.4694     0.0000   121.1759 </r>
       <r>    51.9079     0.0000   122.6944 </r>
       <r>    52.3465     0.0000   124.8241 </r>
       <r>    52.7850     0.0000   126.4907 </r>
       <r>    53.2235     0.0000   127.0278 </r>
       <r>    53.6621     0.0000   127.4722 </r>
       <r>    54.1006     0.0000   129.2130 </r>
       <r>    54.5392     0.0000   130.6667 </r>
       <r>    54.9777     0.0000   132.2778 </r>
       <r>    55.4163     0.0000   133.4167 </r>
       <r>    55.8548     0.4318   134.9208 </r>
       <r>    56.2933     0.0000   137.0463 </r>
       <r>    56.7319     0.0000   137.4908 </r>
       <r>    57.1704     0.0617   138.6289 </r>
       <r>    57.6090     0.5067   139.7130 </r>
       <r>    58.0475     0.0000   141.6574 </r>
       <r>    58.4860     0.0000   142.9167 </r>
       <r>    58.9246     0.0000   143.7315 </r>
       <r>    59.3631     0.0000   145.5185 </r>
       <r>    59.8017     0.0000   147.2593 </r>
       <r>    60.2402     0.0000   149.0741 </r>
       <r>    60.6788     0.0000   149.7778 </r>
       <r>    61.1173     0.0227   150.7322 </r>
       <r>    61.5558     0.0575   152.4049 </r>
       <r>    61.9944     0.0000   153.7130 </r>
       <r>    62.4329     0.2534   155.8981 </r>
       <r>    62.8715     0.0000   156.8241 </r>
       <r>    63.3100     0.0000   158.1019 </r>
       <r>    63.7485     0.3378   159.3981 </r>
       <r>    64.1871     0.0000   161.0370 </r>
       <r>    64.6256     0.0195   162.9900 </r>
       <r>    65.0642     0.5067   164.5370 </r>
       <r>    65.5027     0.0000   165.9074 </r>
       <r>    65.9413     0.0407   167.9252 </r>
       <r>    66.3798     0.0000   168.9259 </r>
       <r>    66.8183     0.0000   170.3889 </r>
       <r>    67.2569     0.0000   171.8704 </r>
       <r>    67.6954     0.0000   173.1204 </r>
       <r>    68.1340     0.0000   174.3704 </r>
       <r>    68.5725     0.0000   176.3704 </r>
       <r>    69.0110     0.0000   177.3333 </r>
       <r>    69.4496     0.0000   178.9167 </r>
       <r>    69.8881     0.0000   180.1389 </r>
       <r>    70.3267     0.0000   181.4907 </r>
       <r>    70.7652     0.0633   183.0277 </r>
       <r>    71.2038     0.0000   184.6944 </r>
       <r>    71.6423     0.2451   186.5057 </r>
       <r>    72.0808     0.0305   187.7171 </r>
       <r>    72.5194     0.1267   188.9630 </r>
       <r>    72.9579     0.0000   190.5926 </r>
       <r>    73.3965     0.1267   193.2130 </r>
       <r>    73.8350     0.0000   194.4259 </r>
       <r>    74.2735     0.0000   195.3148 </r>
       <r>    74.7121     0.0000   197.4352 </r>
       <r>    75.1506     0.5067   199.3056 </r>
       <r>    75.5892     0.0000   199.9722 </r>
       <r>    76.0277     0.0000   202.2685 </r>
       <r>    76.4663     0.0003   203.5742 </r>
       <r>    76.9048     0.0000   205.7593 </r>
       <r>    77.3433     0.0000   208.3981 </r>
       <r>    77.7819     0.0000   209.7593 </r>
       <r>    78.2204     0.0000   211.2407 </r>
       <r>    78.6590     0.0000   213.4815 </r>
       <r>    79.0975     0.1689   214.8796 </r>
       <r>    79.5361     0.0000   216.2500 </r>
       <r>    79.9746     0.0000   217.6019 </r>
       <r>    80.4131     0.0000   219.4630 </r>
       <r>    80.8517     0.0000   221.4444 </r>
       <r>    81.2902     0.5068   222.5926 </r>
       <r>    81.7288     0.0004   224.7039 </r>
       <r>    82.1673     0.0000   226.5926 </r>
       <r>    82.6058     0.0027   227.8901 </r>
       <r>    83.0444     0.0000   228.7222 </r>
       <r>    83.4829     0.0000   230.8056 </r>
       <r>    83.9215     0.3367   232.5180 </r>
       <r>    84.3600     0.0013   233.8339 </r>
       <r>    84.7986     0.0000   235.3704 </r>
       <r>    85.2371     0.0000   237.5741 </r>
       <r>    85.6756     0.0000   238.6574 </r>
       <r>    86.1142     0.0005   239.9447 </r>
       <r>    86.5527     0.0000   242.1574 </r>
       <r>    86.9913     0.0000   243.5185 </r>
       <r>    87.4298     0.0000   245.2963 </r>
       <r>    87.8683     0.5067   247.0463 </r>
       <r>    88.3069     0.0003   249.5557 </r>
       <r>    88.7454     0.0000   251.3519 </r>
       <r>    89.1840     0.0000   251.9074 </r>
       <r>    89.6225     0.0000   253.4722 </r>
       <r>    90.0611     0.0000   254.5278 </r>
       <r>    90.4996     0.0000   255.3333 </r>
       <r>    90.9381     0.0000   255.7778 </r>
       <r>    91.3767     0.0000   255.8889 </r>
       <r>    91.8152     0.0000   256.0000 </r>
       <r>    92.2538     0.0000   256.0000 </r>
       <r>    92.6923     0.0000   256.0000 </r>
       <r>    93.1308     0.0000   256.0000 </r>
       <r>    93.5694     0.0000   256.0000 </r>
       <r>    94.0079     0.0000   256.0000 </r>
       <r>    94.4465     0.0000   256.0000 </r>
       <r>    94.8850     0.0000   256.0000 </r>
       <r>    95.3236     0.0000   256.0000 </r>
       <r>    95.7621     0.0000   256.0000 </r>
       <r>    96.2006     0.0000   256.0000 </r>
       <r>    96.6392     0.0000   256.0000 </r>
       <r>    97.0777     0.0000   256.0000 </r>
       <r>    97.5163     0.0000   256.0000 </r>
      </set>
     </set>
    </array>
   </total>
  </dos>
 </calculation>
 <structure name="finalpos" >
  <crystal>
   <varray name="basis" >
    <v>       4.34234588       0.00000000       0.00000000 </v>
    <v>       2.17117294       3.76058184      -0.00000000 </v>
    <v>       2.17117294       1.25352728       3.54551056 </v>
   </varray>
   <i name="volume">     57.89729060 </i>
   <varray name="rec_basis" >
    <v>       0.23029027      -0.13295815      -0.09401561 </v>
    <v>       0.00000000       0.26591630      -0.09401561 </v>
    <v>      -0.00000000       0.00000000       0.28204683 </v>
   </varray>
  </crystal>
  <varray name="positions" >
   <v>       0.00000000       0.00000000       0.00000000 </v>
  </varray>
  <varray name="velocities" >
   <v>       0.00000000       0.00000000       0.00000000 </v>
  </varray>
 </structure>
</modeling>
