   1   1   0   0
  0.5789729E+02  0.4342346E-09  0.4342346E-09  0.4342346E-09  0.1000000E-15
  1.000000000000000E-004
  CAR 
 Og_FCC                                  
     81.29763137    -46.31305760  301      2.39168869      1.00000000
    -46.313  0.0000E+00  0.0000E+00
    -45.888  0.0000E+00  0.0000E+00
    -45.462  0.0000E+00  0.0000E+00
    -45.037  0.0000E+00  0.0000E+00
    -44.612  0.0000E+00  0.0000E+00
    -44.186  0.0000E+00  0.0000E+00
    -43.761  0.0000E+00  0.0000E+00
    -43.335  0.0000E+00  0.0000E+00
    -42.910  0.0000E+00  0.0000E+00
    -42.485  0.0000E+00  0.0000E+00
    -42.059  0.0000E+00  0.0000E+00
    -41.634  0.0000E+00  0.0000E+00
    -41.209  0.0000E+00  0.0000E+00
    -40.783  0.0000E+00  0.0000E+00
    -40.358  0.0000E+00  0.4000E+01
    -39.933  0.0000E+00  0.4000E+01
    -39.507  0.0000E+00  0.4000E+01
    -39.082  0.0000E+00  0.4000E+01
    -38.656  0.0000E+00  0.4000E+01
    -38.231  0.0000E+00  0.4000E+01
    -37.806  0.0000E+00  0.4000E+01
    -37.380  0.0000E+00  0.4000E+01
    -36.955  0.0000E+00  0.4000E+01
    -36.530  0.0000E+00  0.4000E+01
    -36.104  0.0000E+00  0.4000E+01
    -35.679  0.0000E+00  0.4000E+01
    -35.253  0.0000E+00  0.4000E+01
    -34.828  0.0000E+00  0.4000E+01
    -34.403  0.0000E+00  0.4000E+01
    -33.977  0.0000E+00  0.4000E+01
    -33.552  0.0000E+00  0.4000E+01
    -33.127  0.0000E+00  0.4000E+01
    -32.701  0.0000E+00  0.1000E+02
    -32.276  0.0000E+00  0.1000E+02
    -31.851  0.0000E+00  0.1000E+02
    -31.425  0.0000E+00  0.1000E+02
    -31.000  0.0000E+00  0.1000E+02
    -30.574  0.0000E+00  0.1000E+02
    -30.149  0.0000E+00  0.1000E+02
    -29.724  0.0000E+00  0.1000E+02
    -29.298  0.0000E+00  0.1000E+02
    -28.873  0.0000E+00  0.1000E+02
    -28.448  0.0000E+00  0.1000E+02
    -28.022  0.0000E+00  0.1000E+02
    -27.597  0.0000E+00  0.1000E+02
    -27.171  0.0000E+00  0.1000E+02
    -26.746  0.0000E+00  0.1000E+02
    -26.321  0.0000E+00  0.1000E+02
    -25.895  0.0000E+00  0.1000E+02
    -25.470  0.0000E+00  0.1000E+02
    -25.045  0.0000E+00  0.1200E+02
    -24.619  0.0000E+00  0.1200E+02
    -24.194  0.0000E+00  0.1200E+02
    -23.769  0.0000E+00  0.1200E+02
    -23.343  0.0000E+00  0.1200E+02
    -22.918  0.0000E+00  0.1200E+02
    -22.492  0.0000E+00  0.1200E+02
    -22.067  0.0000E+00  0.1200E+02
    -21.642  0.0000E+00  0.1200E+02
    -21.216  0.0000E+00  0.1200E+02
    -20.791  0.0000E+00  0.1200E+02
    -20.366  0.0000E+00  0.1200E+02
    -19.940  0.0000E+00  0.1200E+02
    -19.515  0.0000E+00  0.1200E+02
    -19.089  0.0000E+00  0.1200E+02
    -18.664  0.0000E+00  0.1200E+02
    -18.239  0.0000E+00  0.1200E+02
    -17.813  0.0000E+00  0.1200E+02
    -17.388  0.0000E+00  0.1200E+02
    -16.963  0.0000E+00  0.1200E+02
    -16.537  0.0000E+00  0.1200E+02
    -16.112  0.0000E+00  0.1200E+02
    -15.686  0.0000E+00  0.1200E+02
    -15.261  0.0000E+00  0.1200E+02
    -14.836  0.0000E+00  0.1200E+02
    -14.410  0.0000E+00  0.1200E+02
    -13.985  0.0000E+00  0.1200E+02
    -13.560  0.0000E+00  0.1200E+02
    -13.134  0.0000E+00  0.1200E+02
    -12.709  0.0000E+00  0.1200E+02
    -12.284  0.0000E+00  0.1200E+02
    -11.858  0.0000E+00  0.1200E+02
    -11.433  0.0000E+00  0.1200E+02
    -11.007  0.0000E+00  0.1200E+02
    -10.582  0.0000E+00  0.1200E+02
    -10.157  0.0000E+00  0.1386E+02
     -9.731  0.0000E+00  0.1400E+02
     -9.306  0.0000E+00  0.1400E+02
     -8.881  0.0000E+00  0.1400E+02
     -8.455  0.0000E+00  0.1400E+02
     -8.030  0.0000E+00  0.1400E+02
     -7.604  0.0000E+00  0.1400E+02
     -7.179  0.0000E+00  0.1400E+02
     -6.754  0.0000E+00  0.1400E+02
     -6.328  0.0000E+00  0.1400E+02
     -5.903  0.0000E+00  0.1400E+02
     -5.478  0.0000E+00  0.1400E+02
     -5.052  0.0000E+00  0.1400E+02
     -4.627  0.0000E+00  0.1400E+02
     -4.202  0.0000E+00  0.1400E+02
     -3.776  0.0000E+00  0.1400E+02
     -3.351  0.0000E+00  0.1400E+02
     -2.925  0.0000E+00  0.1400E+02
     -2.500  0.0000E+00  0.1400E+02
     -2.075  0.0000E+00  0.1400E+02
     -1.649  0.0000E+00  0.1400E+02
     -1.224  0.0000E+00  0.1400E+02
     -0.799  0.0000E+00  0.1540E+02
     -0.373  0.0000E+00  0.1575E+02
      0.052  0.0000E+00  0.1597E+02
      0.478  0.0000E+00  0.1653E+02
      0.903  0.1285E+00  0.1696E+02
      1.328  0.0000E+00  0.1741E+02
      1.754  0.0000E+00  0.1778E+02
      2.179  0.0000E+00  0.1798E+02
      2.604  0.0000E+00  0.1800E+02
      3.030  0.0000E+00  0.1800E+02
      3.455  0.0000E+00  0.1801E+02
      3.880  0.0000E+00  0.1801E+02
      4.306  0.0000E+00  0.1801E+02
      4.731  0.0000E+00  0.1801E+02
      5.157  0.0000E+00  0.1801E+02
      5.582  0.0000E+00  0.1808E+02
      6.007  0.0000E+00  0.1814E+02
      6.433  0.0000E+00  0.1828E+02
      6.858  0.5224E+00  0.1867E+02
      7.283  0.0000E+00  0.1933E+02
      7.709  0.0000E+00  0.1978E+02
      8.134  0.0000E+00  0.2003E+02
      8.560  0.0000E+00  0.2031E+02
      8.985  0.5195E+00  0.2064E+02
      9.410  0.0000E+00  0.2164E+02
      9.836  0.0000E+00  0.2203E+02
     10.261  0.1306E+00  0.2238E+02
     10.686  0.0000E+00  0.2290E+02
     11.112  0.0000E+00  0.2381E+02
     11.537  0.0000E+00  0.2401E+02
     11.962  0.0000E+00  0.2489E+02
     12.388  0.0000E+00  0.2567E+02
     12.813  0.0000E+00  0.2606E+02
     13.239  0.3557E-01  0.2633E+02
     13.664  0.0000E+00  0.2726E+02
     14.089  0.5450E-01  0.2781E+02
     14.515  0.0000E+00  0.2889E+02
     14.940  0.0000E+00  0.2964E+02
     15.365  0.0000E+00  0.3047E+02
     15.791  0.0000E+00  0.3056E+02
     16.216  0.0000E+00  0.3115E+02
     16.642  0.0000E+00  0.3197E+02
     17.067  0.0000E+00  0.3238E+02
     17.492  0.0000E+00  0.3339E+02
     17.918  0.3265E-01  0.3486E+02
     18.343  0.0000E+00  0.3747E+02
     18.768  0.5224E+00  0.3939E+02
     19.194  0.2189E-04  0.4078E+02
     19.619  0.5224E+00  0.4306E+02
     20.045  0.2728E-14  0.4382E+02
     20.470  0.4527E+00  0.4534E+02
     20.895  0.0000E+00  0.4600E+02
     21.321  0.0000E+00  0.4641E+02
     21.746  0.0000E+00  0.4657E+02
     22.171  0.0000E+00  0.4718E+02
     22.597  0.0000E+00  0.4795E+02
     23.022  0.0000E+00  0.4835E+02
     23.447  0.0000E+00  0.4911E+02
     23.873  0.0000E+00  0.5017E+02
     24.298  0.0000E+00  0.5111E+02
     24.724  0.5224E+00  0.5236E+02
     25.149  0.0000E+00  0.5377E+02
     25.574  0.0000E+00  0.5536E+02
     26.000  0.0000E+00  0.5651E+02
     26.425  0.0000E+00  0.5749E+02
     26.850  0.0000E+00  0.5767E+02
     27.276  0.0000E+00  0.5849E+02
     27.701  0.0000E+00  0.5977E+02
     28.127  0.0000E+00  0.6035E+02
     28.552  0.0000E+00  0.6128E+02
     28.977  0.0000E+00  0.6202E+02
     29.403  0.0000E+00  0.6257E+02
     29.828  0.0000E+00  0.6362E+02
     30.253  0.0000E+00  0.6473E+02
     30.679  0.0000E+00  0.6510E+02
     31.104  0.0000E+00  0.6638E+02
     31.529  0.0000E+00  0.6712E+02
     31.955  0.0000E+00  0.6906E+02
     32.380  0.0000E+00  0.6993E+02
     32.806  0.0000E+00  0.7146E+02
     33.231  0.0000E+00  0.7242E+02
     33.656  0.0000E+00  0.7325E+02
     34.082  0.0000E+00  0.7442E+02
     34.507  0.9724E-01  0.7507E+02
     34.932  0.8707E-01  0.7602E+02
     35.358  0.0000E+00  0.7787E+02
     35.783  0.0000E+00  0.7869E+02
     36.209  0.0000E+00  0.7996E+02
     36.634  0.5158E+00  0.8115E+02
     37.059  0.0000E+00  0.8307E+02
     37.485  0.0000E+00  0.8330E+02
     37.910  0.0000E+00  0.8430E+02
     38.335  0.0000E+00  0.8549E+02
     38.761  0.0000E+00  0.8607E+02
     39.186  0.0000E+00  0.8693E+02
     39.611  0.0000E+00  0.8872E+02
     40.037  0.0000E+00  0.8955E+02
     40.462  0.6345E-01  0.9029E+02
     40.888  0.0000E+00  0.9111E+02
     41.313  0.2177E-01  0.9271E+02
     41.738  0.0000E+00  0.9364E+02
     42.164  0.2612E+00  0.9536E+02
     42.589  0.0000E+00  0.9627E+02
     43.014  0.5007E+00  0.9757E+02
     43.440  0.0000E+00  0.9856E+02
     43.865  0.0000E+00  0.9962E+02
     44.291  0.1663E+00  0.1007E+03
     44.716  0.1741E+00  0.1018E+03
     45.141  0.1306E+00  0.1028E+03
     45.567  0.0000E+00  0.1040E+03
     45.992  0.0000E+00  0.1056E+03
     46.417  0.0000E+00  0.1067E+03
     46.843  0.0000E+00  0.1079E+03
     47.268  0.0000E+00  0.1095E+03
     47.693  0.4650E-03  0.1105E+03
     48.119  0.0000E+00  0.1116E+03
     48.544  0.6345E-01  0.1128E+03
     48.970  0.4854E-02  0.1138E+03
     49.395  0.5442E+00  0.1153E+03
     49.820  0.0000E+00  0.1162E+03
     50.246  0.0000E+00  0.1175E+03
     50.671  0.0000E+00  0.1189E+03
     51.096  0.0000E+00  0.1205E+03
     51.522  0.9992E-06  0.1216E+03
     51.947  0.0000E+00  0.1232E+03
     52.373  0.0000E+00  0.1250E+03
     52.798  0.0000E+00  0.1264E+03
     53.223  0.0000E+00  0.1271E+03
     53.649  0.1741E+00  0.1280E+03
     54.074  0.0000E+00  0.1294E+03
     54.499  0.0000E+00  0.1311E+03
     54.925  0.0000E+00  0.1324E+03
     55.350  0.0000E+00  0.1333E+03
     55.775  0.1306E+00  0.1351E+03
     56.201  0.0000E+00  0.1362E+03
     56.626  0.0000E+00  0.1375E+03
     57.052  0.0000E+00  0.1385E+03
     57.477  0.1520E-09  0.1396E+03
     57.902  0.0000E+00  0.1413E+03
     58.328  0.5224E+00  0.1430E+03
     58.753  0.0000E+00  0.1433E+03
     59.178  0.0000E+00  0.1455E+03
     59.604  0.8707E-01  0.1466E+03
     60.029  0.0000E+00  0.1480E+03
     60.455  0.1144E+00  0.1496E+03
     60.880  0.0000E+00  0.1510E+03
     61.305  0.2272E-02  0.1518E+03
     61.731  0.0000E+00  0.1532E+03
     62.156  0.2612E+00  0.1548E+03
     62.581  0.0000E+00  0.1555E+03
     63.007  0.0000E+00  0.1568E+03
     63.432  0.0000E+00  0.1585E+03
     63.858  0.0000E+00  0.1599E+03
     64.283  0.0000E+00  0.1618E+03
     64.708  0.0000E+00  0.1633E+03
     65.134  0.1300E+00  0.1647E+03
     65.559  0.0000E+00  0.1656E+03
     65.984  0.0000E+00  0.1683E+03
     66.410  0.0000E+00  0.1696E+03
     66.835  0.2612E+00  0.1706E+03
     67.260  0.5478E-02  0.1719E+03
     67.686  0.0000E+00  0.1732E+03
     68.111  0.0000E+00  0.1746E+03
     68.537  0.0000E+00  0.1759E+03
     68.962  0.0000E+00  0.1773E+03
     69.387  0.0000E+00  0.1789E+03
     69.813  0.4835E+00  0.1805E+03
     70.238  0.0000E+00  0.1814E+03
     70.663  0.0000E+00  0.1829E+03
     71.089  0.0000E+00  0.1846E+03
     71.514  0.1260E-02  0.1860E+03
     71.940  0.3265E+00  0.1876E+03
     72.365  0.0000E+00  0.1888E+03
     72.790  0.0000E+00  0.1904E+03
     73.216  0.1023E+00  0.1925E+03
     73.641  0.5893E-01  0.1935E+03
     74.066  0.1468E-03  0.1943E+03
     74.492  0.0000E+00  0.1954E+03
     74.917  0.0000E+00  0.1958E+03
     75.342  0.0000E+00  0.1959E+03
     75.768  0.0000E+00  0.1960E+03
     76.193  0.0000E+00  0.1960E+03
     76.619  0.0000E+00  0.1960E+03
     77.044  0.0000E+00  0.1960E+03
     77.469  0.0000E+00  0.1960E+03
     77.895  0.0000E+00  0.1960E+03
     78.320  0.0000E+00  0.1960E+03
     78.745  0.0000E+00  0.1960E+03
     79.171  0.0000E+00  0.1960E+03
     79.596  0.0000E+00  0.1960E+03
     80.022  0.0000E+00  0.1960E+03
     80.447  0.0000E+00  0.1960E+03
     80.872  0.0000E+00  0.1960E+03
     81.298  0.0000E+00  0.1960E+03
