   1   1   0   0
  0.5811493E+02  0.4347780E-09  0.4347780E-09  0.4347780E-09  0.2000000E-16
  1.000000000000000E-004
  CAR 
 Og_FCC                                  
     19.28832089    -32.89119731  301      3.91626225      1.00000000
    -32.891  0.0000E+00  0.0000E+00
    -32.717  0.0000E+00  0.0000E+00
    -32.543  0.0000E+00  0.0000E+00
    -32.369  0.0000E+00  0.0000E+00
    -32.195  0.0000E+00  0.0000E+00
    -32.022  0.0000E+00  0.0000E+00
    -31.848  0.0000E+00  0.0000E+00
    -31.674  0.0000E+00  0.0000E+00
    -31.500  0.0000E+00  0.0000E+00
    -31.326 -0.4618E-28 -0.8032E-29
    -31.152 -0.2844E-17 -0.4947E-18
    -30.978 -0.3646E-09 -0.6341E-10
    -30.804 -0.9185E-04 -0.1597E-04
    -30.630 -0.1572E-01 -0.2750E-02
    -30.456  0.4506E+00  0.7562E-01
    -30.282  0.3560E-01  0.8181E-01
    -30.108 -0.1019E-02  0.8163E-01
    -29.934 -0.2712E-07  0.8163E-01
    -29.760 -0.1295E-14  0.8163E-01
    -29.586  0.0000E+00  0.8163E-01
    -29.413  0.0000E+00  0.8163E-01
    -29.239  0.0000E+00  0.8163E-01
    -29.065  0.0000E+00  0.8163E-01
    -28.891  0.0000E+00  0.8163E-01
    -28.717  0.0000E+00  0.8163E-01
    -28.543  0.0000E+00  0.8163E-01
    -28.369  0.0000E+00  0.8163E-01
    -28.195  0.0000E+00  0.8163E-01
    -28.021  0.0000E+00  0.8163E-01
    -27.847  0.0000E+00  0.8163E-01
    -27.673  0.0000E+00  0.8163E-01
    -27.499  0.0000E+00  0.8163E-01
    -27.325  0.0000E+00  0.8163E-01
    -27.151  0.0000E+00  0.8163E-01
    -26.978  0.0000E+00  0.8163E-01
    -26.804  0.0000E+00  0.8163E-01
    -26.630  0.0000E+00  0.8163E-01
    -26.456  0.0000E+00  0.8163E-01
    -26.282  0.0000E+00  0.8163E-01
    -26.108  0.0000E+00  0.8163E-01
    -25.934  0.0000E+00  0.8163E-01
    -25.760  0.0000E+00  0.8163E-01
    -25.586  0.0000E+00  0.8163E-01
    -25.412  0.0000E+00  0.8163E-01
    -25.238  0.0000E+00  0.8163E-01
    -25.064  0.0000E+00  0.8163E-01
    -24.890  0.0000E+00  0.8163E-01
    -24.716 -0.5986E-34  0.8163E-01
    -24.542 -0.6562E-22  0.8163E-01
    -24.369 -0.1561E-12  0.8163E-01
    -24.195 -0.7908E-06  0.8163E-01
    -24.021 -0.6383E-02  0.8052E-01
    -23.847  0.2297E+00  0.1205E+00
    -23.673  0.4996E+00  0.2074E+00
    -23.499 -0.1890E-01  0.2041E+00
    -23.325 -0.1494E-04  0.2041E+00
    -23.151 -0.1466E-10  0.2041E+00
    -22.977  0.0000E+00  0.2041E+00
    -22.803  0.0000E+00  0.2041E+00
    -22.629  0.0000E+00  0.2041E+00
    -22.455  0.0000E+00  0.2041E+00
    -22.281  0.0000E+00  0.2041E+00
    -22.107  0.0000E+00  0.2041E+00
    -21.933  0.0000E+00  0.2041E+00
    -21.760  0.0000E+00  0.2041E+00
    -21.586  0.0000E+00  0.2041E+00
    -21.412  0.0000E+00  0.2041E+00
    -21.238  0.0000E+00  0.2041E+00
    -21.064 -0.4532E-31  0.2041E+00
    -20.890 -0.4594E-20  0.2041E+00
    -20.716 -0.1116E-11  0.2041E+00
    -20.542 -0.7121E-06  0.2041E+00
    -20.368 -0.1307E-02  0.2039E+00
    -20.194  0.3996E-01  0.2108E+00
    -20.020  0.2019E+00  0.2459E+00
    -19.846 -0.5821E-02  0.2449E+00
    -19.672 -0.5458E-04  0.2449E+00
    -19.498 -0.3695E-09  0.2449E+00
    -19.325 -0.2573E-17  0.2449E+00
    -19.151  0.0000E+00  0.2449E+00
    -18.977  0.0000E+00  0.2449E+00
    -18.803  0.0000E+00  0.2449E+00
    -18.629  0.0000E+00  0.2449E+00
    -18.455  0.0000E+00  0.2449E+00
    -18.281  0.0000E+00  0.2449E+00
    -18.107  0.0000E+00  0.2449E+00
    -17.933  0.0000E+00  0.2449E+00
    -17.759  0.0000E+00  0.2449E+00
    -17.585  0.0000E+00  0.2449E+00
    -17.411  0.0000E+00  0.2449E+00
    -17.237  0.0000E+00  0.2449E+00
    -17.063  0.0000E+00  0.2449E+00
    -16.889  0.0000E+00  0.2449E+00
    -16.716  0.0000E+00  0.2449E+00
    -16.542  0.0000E+00  0.2449E+00
    -16.368  0.0000E+00  0.2449E+00
    -16.194  0.0000E+00  0.2449E+00
    -16.020  0.0000E+00  0.2449E+00
    -15.846  0.0000E+00  0.2449E+00
    -15.672  0.0000E+00  0.2449E+00
    -15.498  0.0000E+00  0.2449E+00
    -15.324  0.0000E+00  0.2449E+00
    -15.150  0.0000E+00  0.2449E+00
    -14.976  0.0000E+00  0.2449E+00
    -14.802  0.0000E+00  0.2449E+00
    -14.628  0.0000E+00  0.2449E+00
    -14.454  0.0000E+00  0.2449E+00
    -14.281  0.0000E+00  0.2449E+00
    -14.107  0.0000E+00  0.2449E+00
    -13.933  0.0000E+00  0.2449E+00
    -13.759  0.0000E+00  0.2449E+00
    -13.585  0.0000E+00  0.2449E+00
    -13.411  0.0000E+00  0.2449E+00
    -13.237  0.0000E+00  0.2449E+00
    -13.063  0.0000E+00  0.2449E+00
    -12.889  0.0000E+00  0.2449E+00
    -12.715  0.0000E+00  0.2449E+00
    -12.541  0.0000E+00  0.2449E+00
    -12.367  0.0000E+00  0.2449E+00
    -12.193  0.0000E+00  0.2449E+00
    -12.019  0.0000E+00  0.2449E+00
    -11.845  0.0000E+00  0.2449E+00
    -11.672  0.0000E+00  0.2449E+00
    -11.498  0.0000E+00  0.2449E+00
    -11.324  0.0000E+00  0.2449E+00
    -11.150  0.0000E+00  0.2449E+00
    -10.976  0.0000E+00  0.2449E+00
    -10.802  0.0000E+00  0.2449E+00
    -10.628  0.0000E+00  0.2449E+00
    -10.454  0.0000E+00  0.2449E+00
    -10.280  0.0000E+00  0.2449E+00
    -10.106  0.0000E+00  0.2449E+00
     -9.932  0.0000E+00  0.2449E+00
     -9.758  0.0000E+00  0.2449E+00
     -9.584  0.0000E+00  0.2449E+00
     -9.410  0.0000E+00  0.2449E+00
     -9.236  0.0000E+00  0.2449E+00
     -9.063  0.0000E+00  0.2449E+00
     -8.889  0.0000E+00  0.2449E+00
     -8.715  0.0000E+00  0.2449E+00
     -8.541  0.0000E+00  0.2449E+00
     -8.367  0.0000E+00  0.2449E+00
     -8.193 -0.1240E-29  0.2449E+00
     -8.019 -0.9630E-19  0.2449E+00
     -7.845 -0.1666E-10  0.2449E+00
     -7.671 -0.6482E-05  0.2449E+00
     -7.497 -0.3592E-02  0.2443E+00
     -7.323  0.9833E-01  0.2614E+00
     -7.149  0.1144E+00  0.2813E+00
     -6.975  0.2384E-01  0.2854E+00
     -6.801  0.1776E-02  0.2857E+00
     -6.628 -0.7881E-04  0.2857E+00
     -6.454 -0.2927E-07  0.2857E+00
     -6.280 -0.3180E-13  0.2857E+00
     -6.106  0.0000E+00  0.2857E+00
     -5.932  0.0000E+00  0.2857E+00
     -5.758  0.0000E+00  0.2857E+00
     -5.584  0.0000E+00  0.2857E+00
     -5.410  0.0000E+00  0.2857E+00
     -5.236  0.0000E+00  0.2857E+00
     -5.062  0.0000E+00  0.2857E+00
     -4.888  0.0000E+00  0.2857E+00
     -4.714  0.0000E+00  0.2857E+00
     -4.540  0.0000E+00  0.2857E+00
     -4.366  0.0000E+00  0.2857E+00
     -4.192  0.0000E+00  0.2857E+00
     -4.019  0.0000E+00  0.2857E+00
     -3.845  0.0000E+00  0.2857E+00
     -3.671  0.0000E+00  0.2857E+00
     -3.497  0.0000E+00  0.2857E+00
     -3.323  0.0000E+00  0.2857E+00
     -3.149  0.0000E+00  0.2857E+00
     -2.975  0.0000E+00  0.2857E+00
     -2.801  0.0000E+00  0.2857E+00
     -2.627  0.0000E+00  0.2857E+00
     -2.453  0.0000E+00  0.2857E+00
     -2.279  0.0000E+00  0.2857E+00
     -2.105  0.0000E+00  0.2857E+00
     -1.931  0.0000E+00  0.2857E+00
     -1.757  0.0000E+00  0.2857E+00
     -1.583  0.0000E+00  0.2857E+00
     -1.410  0.0000E+00  0.2857E+00
     -1.236  0.0000E+00  0.2857E+00
     -1.062  0.0000E+00  0.2857E+00
     -0.888  0.0000E+00  0.2857E+00
     -0.714  0.0000E+00  0.2857E+00
     -0.540  0.0000E+00  0.2857E+00
     -0.366  0.0000E+00  0.2857E+00
     -0.192 -0.8875E-37  0.2857E+00
     -0.018 -0.1493E-24  0.2857E+00
      0.156 -0.5484E-15  0.2857E+00
      0.330 -0.4519E-08  0.2857E+00
      0.504 -0.8270E-04  0.2857E+00
      0.678 -0.2919E-03  0.2856E+00
      0.852  0.1023E+00  0.3034E+00
      1.025  0.6991E-01  0.3156E+00
      1.199  0.1654E-01  0.3185E+00
      1.373  0.1409E-01  0.3209E+00
      1.547  0.1149E-01  0.3229E+00
      1.721  0.8056E-02  0.3243E+00
      1.895  0.1718E-01  0.3273E+00
      2.069  0.3918E-01  0.3341E+00
      2.243  0.2694E-01  0.3388E+00
      2.417  0.2378E-01  0.3430E+00
      2.591  0.3637E-01  0.3493E+00
      2.765  0.1976E-01  0.3527E+00
      2.939  0.1351E-01  0.3551E+00
      3.113  0.2687E-01  0.3597E+00
      3.287  0.1440E-01  0.3622E+00
      3.461  0.1362E-01  0.3646E+00
      3.634  0.8425E-02  0.3661E+00
      3.808  0.5218E-02  0.3670E+00
      3.982  0.2433E-02  0.3674E+00
      4.156 -0.5190E-04  0.3674E+00
      4.330 -0.1015E-05  0.3674E+00
      4.504 -0.1785E-10  0.3674E+00
      4.678 -0.1865E-06  0.3674E+00
      4.852 -0.8880E-04  0.3674E+00
      5.026  0.2228E-02  0.3678E+00
      5.200  0.4668E-03  0.3679E+00
      5.374  0.1935E-02  0.3682E+00
      5.548 -0.6057E-04  0.3682E+00
      5.722  0.9550E-03  0.3683E+00
      5.896  0.4815E-02  0.3692E+00
      6.070  0.2411E-02  0.3696E+00
      6.243  0.1084E-01  0.3715E+00
      6.417  0.1665E-02  0.3718E+00
      6.591  0.1436E-01  0.3743E+00
      6.765  0.3094E-01  0.3797E+00
      6.939  0.2530E-01  0.3841E+00
      7.113  0.1382E-01  0.3865E+00
      7.287  0.2967E-01  0.3916E+00
      7.461  0.5097E-01  0.4005E+00
      7.635  0.2034E-01  0.4040E+00
      7.809  0.2006E-01  0.4075E+00
      7.983  0.7700E-02  0.4089E+00
      8.157  0.8938E-02  0.4104E+00
      8.331  0.1006E-01  0.4122E+00
      8.505  0.1108E-02  0.4124E+00
      8.678  0.2627E-01  0.4169E+00
      8.852  0.8037E-01  0.4309E+00
      9.026  0.1394E-01  0.4333E+00
      9.200  0.1921E-01  0.4367E+00
      9.374  0.2496E-01  0.4410E+00
      9.548  0.1633E-01  0.4439E+00
      9.722  0.4063E-01  0.4509E+00
      9.896  0.4797E-01  0.4593E+00
     10.070  0.2810E-01  0.4641E+00
     10.244  0.8354E-02  0.4656E+00
     10.418  0.2129E-01  0.4693E+00
     10.592  0.4029E-01  0.4763E+00
     10.766  0.5638E-01  0.4861E+00
     10.940  0.2003E-01  0.4896E+00
     11.114  0.1342E-01  0.4919E+00
     11.287  0.2942E-01  0.4971E+00
     11.461  0.2499E-01  0.5014E+00
     11.635  0.6856E-01  0.5133E+00
     11.809  0.3226E-01  0.5189E+00
     11.983  0.2202E-01  0.5228E+00
     12.157  0.3650E-01  0.5291E+00
     12.331  0.2488E-01  0.5334E+00
     12.505  0.2488E-01  0.5378E+00
     12.679  0.2650E-01  0.5424E+00
     12.853  0.4997E-01  0.5511E+00
     13.027  0.4405E-01  0.5587E+00
     13.201  0.4465E-01  0.5665E+00
     13.375  0.5476E-02  0.5674E+00
     13.549  0.5301E-01  0.5767E+00
     13.723  0.5248E-01  0.5858E+00
     13.896  0.3398E-01  0.5917E+00
     14.070  0.1866E-01  0.5950E+00
     14.244  0.3121E-01  0.6004E+00
     14.418  0.6601E-01  0.6119E+00
     14.592  0.5315E-01  0.6211E+00
     14.766  0.2664E-01  0.6257E+00
     14.940  0.2621E-01  0.6303E+00
     15.114  0.1877E-01  0.6336E+00
     15.288  0.7021E-02  0.6348E+00
     15.462  0.1766E-01  0.6379E+00
     15.636  0.3708E-01  0.6443E+00
     15.810  0.1536E-03  0.6443E+00
     15.984 -0.4812E-03  0.6442E+00
     16.158  0.1377E-01  0.6466E+00
     16.331  0.1019E-01  0.6484E+00
     16.505  0.9017E-03  0.6486E+00
     16.679  0.2530E-02  0.6490E+00
     16.853  0.9368E-02  0.6506E+00
     17.027  0.1444E-01  0.6532E+00
     17.201 -0.5311E-03  0.6531E+00
     17.375 -0.2347E-05  0.6531E+00
     17.549 -0.8650E-11  0.6531E+00
     17.723  0.0000E+00  0.6531E+00
     17.897  0.0000E+00  0.6531E+00
     18.071  0.0000E+00  0.6531E+00
     18.245  0.0000E+00  0.6531E+00
     18.419  0.0000E+00  0.6531E+00
     18.593  0.0000E+00  0.6531E+00
     18.767  0.0000E+00  0.6531E+00
     18.940  0.0000E+00  0.6531E+00
     19.114  0.0000E+00  0.6531E+00
     19.288  0.0000E+00  0.6531E+00
