    1    1   49    1
  0.5811493E+02  0.4347780E-09  0.4347780E-09  0.4347780E-09  0.2000000E-16
  1.000000000000000E-004
  CAR 
 Og_FCC                                  
     18    365     32
 
  0.0000000E+00  0.0000000E+00  0.0000000E+00  0.1371742E-02
    1      -30.519401   1.000000
    2      -30.519401   1.000000
    3      -30.519393   1.000000
    4      -30.519393   1.000000
    5      -23.831536   1.000000
    6      -23.831536   1.000000
    7      -23.827633   1.000000
    8      -23.827633   1.000000
    9      -23.827630   1.000000
   10      -23.827630   1.000000
   11      -20.252053   1.000000
   12      -20.252053   1.000000
   13       -6.937764   1.000000
   14       -6.937764   1.000000
   15        3.687822   1.002872
   16        3.687824   1.002872
   17        3.911415   0.540972
   18        3.911415   0.540970
   19        3.911419   0.540936
   20        3.911419   0.540935
   21       10.845471   0.000000
   22       10.845472   0.000000
   23       10.845474   0.000000
   24       10.845475   0.000000
   25       11.086424   0.000000
   26       11.086425   0.000000
   27       11.269066   0.000000
   28       11.269066   0.000000
   29       13.177723   0.000000
   30       13.177761   0.000000
   31       13.480506   0.000000
   32       13.480546   0.000000
 
  0.1111111E+00  0.1043312E-17 -0.6938894E-17  0.2743484E-02
    1      -30.519332   1.000000
    2      -30.519332   1.000000
    3      -30.519067   1.000000
    4      -30.519067   1.000000
    5      -23.830761   1.000000
    6      -23.830761   1.000000
    7      -23.827744   1.000000
    8      -23.827743   1.000000
    9      -23.826736   1.000000
   10      -23.826736   1.000000
   11      -20.239614   1.000000
   12      -20.239614   1.000000
   13       -6.979913   1.000000
   14       -6.979913   1.000000
   15        2.658888   1.000000
   16        2.658889   1.000000
   17        3.837137   0.987774
   18        3.837138   0.987774
   19        4.982562  -0.000000
   20        4.982562  -0.000000
   21       10.012981   0.000000
   22       10.012981   0.000000
   23       10.966831   0.000000
   24       10.966832   0.000000
   25       11.255618   0.000000
   26       11.255619   0.000000
   27       12.280096   0.000000
   28       12.280097   0.000000
   29       12.684993   0.000000
   30       12.684997   0.000000
   31       12.836269   0.000000
   32       12.836282   0.000000
 
  0.2222222E+00 -0.1179116E-16 -0.1387779E-16  0.2743484E-02
    1      -30.519137   1.000000
    2      -30.519137   1.000000
    3      -30.518207   1.000000
    4      -30.518207   1.000000
    5      -23.829598   1.000000
    6      -23.829598   1.000000
    7      -23.827242   1.000000
    8      -23.827242   1.000000
    9      -23.824467   1.000000
   10      -23.824467   1.000000
   11      -20.207662   1.000000
   12      -20.207662   1.000000
   13       -7.086842   1.000000
   14       -7.086842   1.000000
   15        1.725874   1.000000
   16        1.725875   1.000000
   17        3.661018   1.000913
   18        3.661019   1.000913
   19        5.870503  -0.000000
   20        5.870504  -0.000000
   21        9.788764   0.000000
   22        9.788765   0.000000
   23       10.941210   0.000000
   24       10.941211   0.000000
   25       11.307545   0.000000
   26       11.307545   0.000000
   27       11.747455   0.000000
   28       11.747458   0.000000
   29       12.507564   0.000000
   30       12.507564   0.000000
   31       12.723418   0.000000
   32       12.723418   0.000000
 
  0.3333333E+00 -0.2462564E-16 -0.1387779E-16  0.2743484E-02
    1      -30.518910   1.000000
    2      -30.518910   1.000000
    3      -30.517195   1.000000
    4      -30.517195   1.000000
    5      -23.829839   1.000000
    6      -23.829839   1.000000
    7      -23.825122   1.000000
    8      -23.825122   1.000000
    9      -23.821880   1.000000
   10      -23.821880   1.000000
   11      -20.170807   1.000000
   12      -20.170807   1.000000
   13       -7.208962   1.000000
   14       -7.208962   1.000000
   15        1.070249   1.000000
   16        1.070250   1.000000
   17        3.478036   1.000000
   18        3.478036   1.000000
   19        6.181754  -0.000000
   20        6.181755  -0.000000
   21       10.368350   0.000000
   22       10.368353   0.000000
   23       10.573993   0.000000
   24       10.573994   0.000000
   25       11.005057   0.000000
   26       11.005058   0.000000
   27       11.245051   0.000000
   28       11.245053   0.000000
   29       13.263020   0.000000
   30       13.263021   0.000000
   31       13.532074   0.000000
   32       13.532075   0.000000
 
  0.4444444E+00 -0.2358233E-16 -0.2775558E-16  0.2743484E-02
    1      -30.518748   1.000000
    2      -30.518748   1.000000
    3      -30.516526   1.000000
    4      -30.516526   1.000000
    5      -23.830222   1.000000
    6      -23.830222   1.000000
    7      -23.823519   1.000000
    8      -23.823519   1.000000
    9      -23.820187   1.000000
   10      -23.820187   1.000000
   11      -20.146413   1.000000
   12      -20.146412   1.000000
   13       -7.288954   1.000000
   14       -7.288954   1.000000
   15        0.733998   1.000000
   16        0.733999   1.000000
   17        3.366758   1.000000
   18        3.366758   1.000000
   19        6.190786  -0.000000
   20        6.190787  -0.000000
   21       10.318843   0.000000
   22       10.318844   0.000000
   23       10.512105   0.000000
   24       10.512109   0.000000
   25       10.723675   0.000000
   26       10.723676   0.000000
   27       11.866884   0.000000
   28       11.866885   0.000000
   29       14.342548   0.000000
   30       14.342549   0.000000
   31       14.521647   0.000000
   32       14.521648   0.000000
 
  0.0000000E+00  0.1111111E+00  0.0000000E+00  0.2743484E-02
    1      -30.519336   1.000000
    2      -30.519336   1.000000
    3      -30.519064   1.000000
    4      -30.519063   1.000000
    5      -23.830762   1.000000
    6      -23.830762   1.000000
    7      -23.827743   1.000000
    8      -23.827743   1.000000
    9      -23.826735   1.000000
   10      -23.826735   1.000000
   11      -20.239614   1.000000
   12      -20.239614   1.000000
   13       -6.979913   1.000000
   14       -6.979913   1.000000
   15        2.658889   1.000000
   16        2.658889   1.000000
   17        3.837136   0.987777
   18        3.837136   0.987777
   19        4.982562  -0.000000
   20        4.982563  -0.000000
   21       10.012981   0.000000
   22       10.012982   0.000000
   23       10.966831   0.000000
   24       10.966831   0.000000
   25       11.255618   0.000000
   26       11.255619   0.000000
   27       12.280096   0.000000
   28       12.280097   0.000000
   29       12.684989   0.000000
   30       12.684995   0.000000
   31       12.836265   0.000000
   32       12.836293   0.000000
 
  0.1111111E+00  0.1111111E+00  0.0000000E+00  0.2743484E-02
    1      -30.519219   1.000000
    2      -30.519219   1.000000
    3      -30.519043   1.000000
    4      -30.519042   1.000000
    5      -23.830623   1.000000
    6      -23.830622   1.000000
    7      -23.827227   1.000000
    8      -23.827227   1.000000
    9      -23.826874   1.000000
   10      -23.826874   1.000000
   11      -20.235463   1.000000
   12      -20.235462   1.000000
   13       -6.993433   1.000000
   14       -6.993433   1.000000
   15        2.551388   1.000000
   16        2.551389   1.000000
   17        3.659681   1.000859
   18        3.659681   1.000859
   19        5.279787  -0.000000
   20        5.279788  -0.000000
   21        9.717772   0.000000
   22        9.717773   0.000000
   23       10.988160   0.000000
   24       10.988161   0.000000
   25       11.568907   0.000000
   26       11.568907   0.000000
   27       11.626757   0.000000
   28       11.626758   0.000000
   29       12.657914   0.000000
   30       12.657915   0.000000
   31       13.654755   0.000000
   32       13.654800   0.000000
 
  0.2222222E+00  0.1111111E+00  0.1387779E-16  0.2743484E-02
    1      -30.519030   1.000000
    2      -30.519030   1.000000
    3      -30.518387   1.000000
    4      -30.518387   1.000000
    5      -23.829573   1.000000
    6      -23.829572   1.000000
    7      -23.827177   1.000000
    8      -23.827176   1.000000
    9      -23.824830   1.000000
   10      -23.824830   1.000000
   11      -20.210016   1.000000
   12      -20.210015   1.000000
   13       -7.077320   1.000000
   14       -7.077320   1.000000
   15        1.859674   1.000000
   16        1.859675   1.000000
   17        3.439602   1.000000
   18        3.439603   1.000000
   19        6.101722  -0.000000
   20        6.101723  -0.000000
   21        9.343795   0.000000
   22        9.343796   0.000000
   23       10.474059   0.000000
   24       10.474061   0.000000
   25       11.411683   0.000000
   26       11.411684   0.000000
   27       12.078984   0.000000
   28       12.078984   0.000000
   29       13.081317   0.000000
   30       13.081317   0.000000
   31       13.509094   0.000000
   32       13.509095   0.000000
 
  0.3333333E+00  0.1111111E+00  0.0000000E+00  0.2743484E-02
    1      -30.518787   1.000000
    2      -30.518786   1.000000
    3      -30.517427   1.000000
    4      -30.517427   1.000000
    5      -23.829158   1.000000
    6      -23.829158   1.000000
    7      -23.825837   1.000000
    8      -23.825837   1.000000
    9      -23.822291   1.000000
   10      -23.822291   1.000000
   11      -20.174755   1.000000
   12      -20.174755   1.000000
   13       -7.192270   1.000000
   14       -7.192269   1.000000
   15        1.215849   1.000000
   16        1.215850   1.000000
   17        3.201233   1.000000
   18        3.201234   1.000000
   19        6.602813  -0.000000
   20        6.602814  -0.000000
   21        9.637126   0.000000
   22        9.637128   0.000000
   23        9.901213   0.000000
   24        9.901215   0.000000
   25       11.293390   0.000000
   26       11.293391   0.000000
   27       12.566674   0.000000
   28       12.566675   0.000000
   29       12.838520   0.000000
   30       12.838520   0.000000
   31       13.969950   0.000000
   32       13.969951   0.000000
 
  0.4444444E+00  0.1111111E+00 -0.2775558E-16  0.2743484E-02
    1      -30.518599   1.000000
    2      -30.518599   1.000000
    3      -30.516696   1.000000
    4      -30.516696   1.000000
    5      -23.829427   1.000000
    6      -23.829427   1.000000
    7      -23.823840   1.000000
    8      -23.823840   1.000000
    9      -23.820596   1.000000
   10      -23.820596   1.000000
   11      -20.146219   1.000000
   12      -20.146219   1.000000
   13       -7.284507   1.000000
   14       -7.284507   1.000000
   15        0.814498   1.000000
   16        0.814499   1.000000
   17        3.018095   1.000000
   18        3.018096   1.000000
   19        6.701100   0.000000
   20        6.701101   0.000000
   21        9.359448   0.000000
   22        9.359450   0.000000
   23       10.666524   0.000000
   24       10.666525   0.000000
   25       11.177771   0.000000
   26       11.177772   0.000000
   27       12.296649   0.000000
   28       12.296650   0.000000
   29       13.613308   0.000000
   30       13.613308   0.000000
   31       14.761932   0.000000
   32       14.761933   0.000000
 
 -0.4444444E+00  0.1111111E+00  0.2775558E-16  0.2743484E-02
    1      -30.518536   1.000000
    2      -30.518536   1.000000
    3      -30.516484   1.000000
    4      -30.516484   1.000000
    5      -23.829504   1.000000
    6      -23.829504   1.000000
    7      -23.823113   1.000000
    8      -23.823113   1.000000
    9      -23.820282   1.000000
   10      -23.820282   1.000000
   11      -20.138062   1.000000
   12      -20.138061   1.000000
   13       -7.310695   1.000000
   14       -7.310695   1.000000
   15        0.710135   1.000000
   16        0.710136   1.000000
   17        2.965238   1.000000
   18        2.965238   1.000000
   19        6.718259   0.000000
   20        6.718260   0.000000
   21        9.288733   0.000000
   22        9.288735   0.000000
   23       10.673405   0.000000
   24       10.673407   0.000000
   25       11.541184   0.000000
   26       11.541185   0.000000
   27       12.446874   0.000000
   28       12.446875   0.000000
   29       13.801527   0.000000
   30       13.801528   0.000000
   31       14.304923   0.000000
   32       14.304924   0.000000
 
 -0.3333333E+00  0.1111111E+00  0.1387779E-16  0.2743484E-02
    1      -30.518650   1.000000
    2      -30.518650   1.000000
    3      -30.516899   1.000000
    4      -30.516899   1.000000
    5      -23.829218   1.000000
    6      -23.829218   1.000000
    7      -23.824424   1.000000
    8      -23.824423   1.000000
    9      -23.821188   1.000000
   10      -23.821188   1.000000
   11      -20.154299   1.000000
   12      -20.154299   1.000000
   13       -7.258712   1.000000
   14       -7.258712   1.000000
   15        0.913050   1.000000
   16        0.913050   1.000000
   17        3.067117   1.000000
   18        3.067118   1.000000
   19        6.727186   0.000000
   20        6.727187   0.000000
   21        9.518800   0.000000
   22        9.518802   0.000000
   23       10.589939   0.000000
   24       10.589940   0.000000
   25       10.920945   0.000000
   26       10.920947   0.000000
   27       12.535424   0.000000
   28       12.535426   0.000000
   29       13.064070   0.000000
   30       13.064071   0.000000
   31       14.356416   0.000000
   32       14.356417   0.000000
 
 -0.2222222E+00  0.1111111E+00  0.0000000E+00  0.2743484E-02
    1      -30.518888   1.000000
    2      -30.518888   1.000000
    3      -30.517746   1.000000
    4      -30.517746   1.000000
    5      -23.828816   1.000000
    6      -23.828816   1.000000
    7      -23.826811   1.000000
    8      -23.826811   1.000000
    9      -23.823146   1.000000
   10      -23.823146   1.000000
   11      -20.187019   1.000000
   12      -20.187018   1.000000
   13       -7.153015   1.000000
   14       -7.153015   1.000000
   15        1.397232   1.000000
   16        1.397233   1.000000
   17        3.300923   1.000000
   18        3.300923   1.000000
   19        6.500100  -0.000000
   20        6.500101  -0.000000
   21        9.614868   0.000000
   22        9.614869   0.000000
   23       10.261828   0.000000
   24       10.261830   0.000000
   25       11.130229   0.000000
   26       11.130231   0.000000
   27       12.068121   0.000000
   28       12.068122   0.000000
   29       12.820107   0.000000
   30       12.820108   0.000000
   31       13.832427   0.000000
   32       13.832428   0.000000
 
 -0.1111111E+00  0.1111111E+00 -0.3696723E-18  0.2743484E-02
    1      -30.519164   1.000000
    2      -30.519164   1.000000
    3      -30.518609   1.000000
    4      -30.518609   1.000000
    5      -23.829699   1.000000
    6      -23.829698   1.000000
    7      -23.827760   1.000000
    8      -23.827760   1.000000
    9      -23.825431   1.000000
   10      -23.825431   1.000000
   11      -20.220634   1.000000
   12      -20.220633   1.000000
   13       -7.042992   1.000000
   14       -7.042992   1.000000
   15        2.071751   1.000000
   16        2.071751   1.000000
   17        3.604703   1.000048
   18        3.604703   1.000048
   19        5.751531  -0.000000
   20        5.751532  -0.000000
   21        9.610894   0.000000
   22        9.610894   0.000000
   23       10.854318   0.000000
   24       10.854319   0.000000
   25       11.353039   0.000000
   26       11.353040   0.000000
   27       11.888993   0.000000
   28       11.888994   0.000000
   29       12.596168   0.000000
   30       12.596169   0.000000
   31       13.165851   0.000000
   32       13.165852   0.000000
 
 -0.3851860E-33  0.2222222E+00  0.0000000E+00  0.2743484E-02
    1      -30.519141   1.000000
    2      -30.519141   1.000000
    3      -30.518204   1.000000
    4      -30.518204   1.000000
    5      -23.829603   1.000000
    6      -23.829602   1.000000
    7      -23.827238   1.000000
    8      -23.827238   1.000000
    9      -23.824467   1.000000
   10      -23.824466   1.000000
   11      -20.207662   1.000000
   12      -20.207661   1.000000
   13       -7.086842   1.000000
   14       -7.086842   1.000000
   15        1.725875   1.000000
   16        1.725876   1.000000
   17        3.661017   1.000913
   18        3.661018   1.000913
   19        5.870502  -0.000000
   20        5.870503  -0.000000
   21        9.788766   0.000000
   22        9.788767   0.000000
   23       10.941210   0.000000
   24       10.941210   0.000000
   25       11.307544   0.000000
   26       11.307545   0.000000
   27       11.747454   0.000000
   28       11.747457   0.000000
   29       12.507564   0.000000
   30       12.507565   0.000000
   31       12.723418   0.000000
   32       12.723419   0.000000
 
  0.1111111E+00  0.2222222E+00 -0.5551115E-16  0.2743484E-02
    1      -30.519033   1.000000
    2      -30.519033   1.000000
    3      -30.518384   1.000000
    4      -30.518384   1.000000
    5      -23.829574   1.000000
    6      -23.829574   1.000000
    7      -23.827177   1.000000
    8      -23.827177   1.000000
    9      -23.824828   1.000000
   10      -23.824828   1.000000
   11      -20.210016   1.000000
   12      -20.210015   1.000000
   13       -7.077320   1.000000
   14       -7.077320   1.000000
   15        1.859675   1.000000
   16        1.859675   1.000000
   17        3.439601   1.000000
   18        3.439602   1.000000
   19        6.101721  -0.000000
   20        6.101723  -0.000000
   21        9.343796   0.000000
   22        9.343797   0.000000
   23       10.474059   0.000000
   24       10.474060   0.000000
   25       11.411683   0.000000
   26       11.411684   0.000000
   27       12.078984   0.000000
   28       12.078985   0.000000
   29       13.081316   0.000000
   30       13.081316   0.000000
   31       13.509091   0.000000
   32       13.509094   0.000000
 
  0.2222222E+00  0.2222222E+00  0.2775558E-16  0.2743484E-02
    1      -30.518752   1.000000
    2      -30.518752   1.000000
    3      -30.518115   1.000000
    4      -30.518115   1.000000
    5      -23.829578   1.000000
    6      -23.829577   1.000000
    7      -23.826220   1.000000
    8      -23.826220   1.000000
    9      -23.823678   1.000000
   10      -23.823678   1.000000
   11      -20.193051   1.000000
   12      -20.193051   1.000000
   13       -7.130167   1.000000
   14       -7.130166   1.000000
   15        1.630556   1.000000
   16        1.630557   1.000000
   17        3.115672   1.000000
   18        3.115673   1.000000
   19        6.631914  -0.000000
   20        6.631916  -0.000000
   21        8.739839   0.000000
   22        8.739840   0.000000
   23        9.925150   0.000000
   24        9.925152   0.000000
   25       11.675334   0.000000
   26       11.675335   0.000000
   27       12.613565   0.000000
   28       12.613566   0.000000
   29       14.417232   0.000000
   30       14.417262   0.000000
   31       14.699269   0.000000
   32       14.706840   0.000000
 
  0.3333333E+00  0.2222222E+00 -0.8326673E-16  0.2743484E-02
    1      -30.518457   1.000000
    2      -30.518457   1.000000
    3      -30.517420   1.000000
    4      -30.517420   1.000000
    5      -23.828973   1.000000
    6      -23.828973   1.000000
    7      -23.825677   1.000000
    8      -23.825677   1.000000
    9      -23.821325   1.000000
   10      -23.821325   1.000000
   11      -20.164350   1.000000
   12      -20.164350   1.000000
   13       -7.219791   1.000000
   14       -7.219790   1.000000
   15        1.222290   1.000000
   16        1.222291   1.000000
   17        2.813642   1.000000
   18        2.813642   1.000000
   19        7.022345   0.000000
   20        7.022347   0.000000
   21        8.623154   0.000000
   22        8.623154   0.000000
   23        9.578154   0.000000
   24        9.578155   0.000000
   25       11.978656   0.000000
   26       11.978657   0.000000
   27       13.150011   0.000000
   28       13.150012   0.000000
   29       14.465234   0.000000
   30       14.465235   0.000000
   31       14.655949   0.000000
   32       14.655949   0.000000
 
  0.4444444E+00  0.2222222E+00 -0.2775558E-16  0.2743484E-02
    1      -30.518187   1.000000
    2      -30.518187   1.000000
    3      -30.516794   1.000000
    4      -30.516794   1.000000
    5      -23.828366   1.000000
    6      -23.828366   1.000000
    7      -23.824442   1.000000
    8      -23.824442   1.000000
    9      -23.819916   1.000000
   10      -23.819916   1.000000
   11      -20.137341   1.000000
   12      -20.137341   1.000000
   13       -7.303035   1.000000
   14       -7.303035   1.000000
   15        0.898105   1.000000
   16        0.898105   1.000000
   17        2.504477   1.000000
   18        2.504477   1.000000
   19        7.211968   0.000000
   20        7.211970   0.000000
   21        8.785316   0.000000
   22        8.785318   0.000000
   23        9.861013   0.000000
   24        9.861014   0.000000
   25       11.791310   0.000000
   26       11.791311   0.000000
   27       13.464941   0.000000
   28       13.464942   0.000000
   29       14.329051   0.000000
   30       14.329052   0.000000
   31       15.143127   0.000000
   32       15.143128   0.000000
 
 -0.4444444E+00  0.2222222E+00  0.1387779E-16  0.2743484E-02
    1      -30.518042   1.000000
    2      -30.518042   1.000000
    3      -30.516518   1.000000
    4      -30.516518   1.000000
    5      -23.828057   1.000000
    6      -23.828057   1.000000
    7      -23.822873   1.000000
    8      -23.822873   1.000000
    9      -23.820310   1.000000
   10      -23.820310   1.000000
   11      -20.124827   1.000000
   12      -20.124827   1.000000
   13       -7.341112   1.000000
   14       -7.341112   1.000000
   15        0.755390   1.000000
   16        0.755391   1.000000
   17        2.339882   1.000000
   18        2.339882   1.000000
   19        7.389924   0.000000
   20        7.389925   0.000000
   21        8.709991   0.000000
   22        8.709993   0.000000
   23       10.863521   0.000000
   24       10.863522   0.000000
   25       11.607667   0.000000
   26       11.607669   0.000000
   27       12.852190   0.000000
   28       12.852191   0.000000
   29       14.179764   0.000000
   30       14.179765   0.000000
   31       14.345280   0.000000
   32       14.345280   0.000000
 
 -0.3333333E+00  0.2222222E+00 -0.1387779E-16  0.2743484E-02
    1      -30.518130   1.000000
    2      -30.518130   1.000000
    3      -30.516683   1.000000
    4      -30.516683   1.000000
    5      -23.827784   1.000000
    6      -23.827784   1.000000
    7      -23.823174   1.000000
    8      -23.823174   1.000000
    9      -23.821248   1.000000
   10      -23.821247   1.000000
   11      -20.132838   1.000000
   12      -20.132838   1.000000
   13       -7.317559   1.000000
   14       -7.317559   1.000000
   15        0.814698   1.000000
   16        0.814699   1.000000
   17        2.426601   1.000000
   18        2.426601   1.000000
   19        7.594673   0.000000
   20        7.594674   0.000000
   21        8.724975   0.000000
   22        8.724978   0.000000
   23       10.649924   0.000000
   24       10.649926   0.000000
   25       11.587963   0.000000
   26       11.587965   0.000000
   27       12.993117   0.000000
   28       12.993117   0.000000
   29       13.186502   0.000000
   30       13.186502   0.000000
   31       14.360039   0.000000
   32       14.360041   0.000000
 
 -0.2222222E+00  0.2222222E+00 -0.1619802E-16  0.2743484E-02
    1      -30.518473   1.000000
    2      -30.518473   1.000000
    3      -30.517179   1.000000
    4      -30.517178   1.000000
    5      -23.827679   1.000000
    6      -23.827679   1.000000
    7      -23.825733   1.000000
    8      -23.825733   1.000000
    9      -23.821772   1.000000
   10      -23.821772   1.000000
   11      -20.157513   1.000000
   12      -20.157513   1.000000
   13       -7.243798   1.000000
   14       -7.243797   1.000000
   15        1.053130   1.000000
   16        1.053130   1.000000
   17        2.776331   1.000000
   18        2.776331   1.000000
   19        7.360860   0.000000
   20        7.360861   0.000000
   21        9.079433   0.000000
   22        9.079435   0.000000
   23       10.003498   0.000000
   24       10.003499   0.000000
   25       11.357424   0.000000
   26       11.357425   0.000000
   27       12.135612   0.000000
   28       12.135613   0.000000
   29       13.958980   0.000000
   30       13.958981   0.000000
   31       14.746651   0.000000
   32       14.746653   0.000000
 
 -0.1111111E+00  0.2222222E+00 -0.6938894E-17  0.2743484E-02
    1      -30.518891   1.000000
    2      -30.518890   1.000000
    3      -30.517744   1.000000
    4      -30.517744   1.000000
    5      -23.828821   1.000000
    6      -23.828821   1.000000
    7      -23.826806   1.000000
    8      -23.826806   1.000000
    9      -23.823146   1.000000
   10      -23.823146   1.000000
   11      -20.187018   1.000000
   12      -20.187018   1.000000
   13       -7.153015   1.000000
   14       -7.153015   1.000000
   15        1.397232   1.000000
   16        1.397233   1.000000
   17        3.300923   1.000000
   18        3.300923   1.000000
   19        6.500099  -0.000000
   20        6.500100  -0.000000
   21        9.614869   0.000000
   22        9.614870   0.000000
   23       10.261828   0.000000
   24       10.261830   0.000000
   25       11.130229   0.000000
   26       11.130230   0.000000
   27       12.068122   0.000000
   28       12.068123   0.000000
   29       12.820106   0.000000
   30       12.820107   0.000000
   31       13.832427   0.000000
   32       13.832428   0.000000
 
 -0.3851860E-33  0.3333333E+00 -0.1387779E-16  0.2743484E-02
    1      -30.518913   1.000000
    2      -30.518913   1.000000
    3      -30.517191   1.000000
    4      -30.517191   1.000000
    5      -23.829844   1.000000
    6      -23.829844   1.000000
    7      -23.825119   1.000000
    8      -23.825118   1.000000
    9      -23.821880   1.000000
   10      -23.821879   1.000000
   11      -20.170807   1.000000
   12      -20.170807   1.000000
   13       -7.208962   1.000000
   14       -7.208962   1.000000
   15        1.070250   1.000000
   16        1.070250   1.000000
   17        3.478035   1.000000
   18        3.478035   1.000000
   19        6.181753  -0.000000
   20        6.181754  -0.000000
   21       10.368352   0.000000
   22       10.368354   0.000000
   23       10.573993   0.000000
   24       10.573993   0.000000
   25       11.005056   0.000000
   26       11.005058   0.000000
   27       11.245050   0.000000
   28       11.245051   0.000000
   29       13.263021   0.000000
   30       13.263022   0.000000
   31       13.532074   0.000000
   32       13.532075   0.000000
 
  0.1111111E+00  0.3333333E+00 -0.2775558E-16  0.2743484E-02
    1      -30.518790   1.000000
    2      -30.518790   1.000000
    3      -30.517423   1.000000
    4      -30.517423   1.000000
    5      -23.829162   1.000000
    6      -23.829162   1.000000
    7      -23.825836   1.000000
    8      -23.825836   1.000000
    9      -23.822289   1.000000
   10      -23.822288   1.000000
   11      -20.174755   1.000000
   12      -20.174755   1.000000
   13       -7.192269   1.000000
   14       -7.192269   1.000000
   15        1.215850   1.000000
   16        1.215850   1.000000
   17        3.201232   1.000000
   18        3.201232   1.000000
   19        6.602813  -0.000000
   20        6.602814  -0.000000
   21        9.637127   0.000000
   22        9.637128   0.000000
   23        9.901213   0.000000
   24        9.901214   0.000000
   25       11.293389   0.000000
   26       11.293390   0.000000
   27       12.566673   0.000000
   28       12.566675   0.000000
   29       12.838520   0.000000
   30       12.838521   0.000000
   31       13.969950   0.000000
   32       13.969952   0.000000
 
  0.2222222E+00  0.3333333E+00 -0.2775558E-16  0.2743484E-02
    1      -30.518460   1.000000
    2      -30.518459   1.000000
    3      -30.517418   1.000000
    4      -30.517418   1.000000
    5      -23.828973   1.000000
    6      -23.828973   1.000000
    7      -23.825678   1.000000
    8      -23.825678   1.000000
    9      -23.821323   1.000000
   10      -23.821323   1.000000
   11      -20.164350   1.000000
   12      -20.164350   1.000000
   13       -7.219790   1.000000
   14       -7.219790   1.000000
   15        1.222291   1.000000
   16        1.222291   1.000000
   17        2.813641   1.000000
   18        2.813641   1.000000
   19        7.022346   0.000000
   20        7.022347   0.000000
   21        8.623154   0.000000
   22        8.623155   0.000000
   23        9.578153   0.000000
   24        9.578154   0.000000
   25       11.978656   0.000000
   26       11.978657   0.000000
   27       13.150012   0.000000
   28       13.150013   0.000000
   29       14.465234   0.000000
   30       14.465235   0.000000
   31       14.655949   0.000000
   32       14.655951   0.000000
 
  0.3333333E+00  0.3333333E+00 -0.5551115E-16  0.2743484E-02
    1      -30.518179   1.000000
    2      -30.518179   1.000000
    3      -30.517015   1.000000
    4      -30.517015   1.000000
    5      -23.829206   1.000000
    6      -23.829206   1.000000
    7      -23.825106   1.000000
    8      -23.825106   1.000000
    9      -23.819203   1.000000
   10      -23.819203   1.000000
   11      -20.144230   1.000000
   12      -20.144230   1.000000
   13       -7.278831   1.000000
   14       -7.278831   1.000000
   15        1.041546   1.000000
   16        1.041547   1.000000
   17        2.604016   1.000000
   18        2.604016   1.000000
   19        6.823935   0.000000