<?xml version="1.0" encoding="ISO-8859-1"?>
<modeling>
 <generator>
  <i name="program" type="string">vasp </i>
  <i name="version" type="string">5.4.4.18Apr17-6-g9f103f2a35  </i>
  <i name="subversion" type="string">(build Nov 03 2018 10:20:46) complex            parallel </i>
  <i name="platform" type="string">LinuxIFC </i>
  <i name="date" type="string">2018 11 29 </i>
  <i name="time" type="string">15:57:42 </i>
 </generator>
 <incar>
  <i type="string" name="SYSTEM">   Og_FCC</i>
  <i type="string" name="PREC">accurate</i>
  <i type="string" name="ALGO">   Fast</i>
  <i type="logical" name="ADDGRID"> T  </i>
  <i type="logical" name="LSORBIT"> T  </i>
  <i type="int" name="ISPIN">     1</i>
  <i type="int" name="MAXMIX">    50</i>
  <i type="int" name="NELM">   100</i>
  <i type="int" name="NELMDL">    -5</i>
  <i type="int" name="NELMIN">     5</i>
  <i type="int" name="IBRION">     6</i>
  <i type="int" name="NFREE">     5</i>
  <i name="EDIFF">      0.00000001</i>
  <i name="EDIFFG">      0.00001000</i>
  <i type="int" name="NSW">   999</i>
  <i type="int" name="ISIF">     3</i>
  <i type="int" name="ISYM">     2</i>
  <i name="SYMPREC">      0.00000010</i>
  <i name="ENCUT">    600.00000000</i>
  <i name="POTIM">      0.02000000</i>
  <i type="logical" name="LREAL"> F  </i>
  <i type="int" name="ISMEAR">     1</i>
  <i name="SIGMA">      0.10000000</i>
  <i name="KSPACING">      0.20000000</i>
  <i type="int" name="NWRITE">     2</i>
  <i type="logical" name="LWAVE"> F  </i>
  <i type="logical" name="LCHARG"> F  </i>
  <i type="logical" name="LVTOT"> F  </i>
  <i type="logical" name="GGA_COMPAT"> F  </i>
  <v type="int" name="KPOINT_BSE">    -1     0     0     0</v>
  <i type="int" name="NELM">   100</i>
  <i type="string" name="GGA"> PE</i>
 </incar>
 <structure name="primitive_cell" >
  <crystal>
   <varray name="basis" >
    <v>       4.34778014       0.00000000       0.00000000 </v>
    <v>       2.17389007       3.76528805      -0.00000000 </v>
    <v>       2.17389007       1.25509602       3.54994762 </v>
   </varray>
   <i name="volume">     58.11493087 </i>
   <varray name="rec_basis" >
    <v>       0.23000243      -0.13279197      -0.09389810 </v>
    <v>       0.00000000       0.26558393      -0.09389810 </v>
    <v>      -0.00000000       0.00000000       0.28169430 </v>
   </varray>
  </crystal>
  <varray name="positions" >
   <v>       0.00000000       0.00000000       0.00000000 </v>
  </varray>
 </structure>
 <varray name="primitive_index" >
  <v type="int" >        1 </v>
 </varray>
 <kpoints>
  <generation param="Gamma">
   <v type="int" name="divisions">       9        9        9 </v>
   <v name="usershift">      0.00000000       0.00000000       0.00000000 </v>
   <v name="genvec1">      0.11111111      -0.00000000       0.00000000 </v>
   <v name="genvec2">      0.00000000       0.11111111       0.00000000 </v>
   <v name="genvec3">     -0.00000000      -0.00000000       0.11111111 </v>
   <v name="shift">      0.00000000       0.00000000       0.00000000 </v>
  </generation>
  <varray name="kpointlist" >
   <v>       0.00000000       0.00000000       0.00000000 </v>
   <v>       0.11111111       0.00000000      -0.00000000 </v>
   <v>       0.22222222      -0.00000000      -0.00000000 </v>
   <v>       0.33333333      -0.00000000      -0.00000000 </v>
   <v>       0.44444444      -0.00000000      -0.00000000 </v>
   <v>       0.00000000       0.11111111       0.00000000 </v>
   <v>       0.11111111       0.11111111       0.00000000 </v>
   <v>       0.22222222       0.11111111       0.00000000 </v>
   <v>       0.33333333       0.11111111       0.00000000 </v>
   <v>       0.44444444       0.11111111      -0.00000000 </v>
   <v>      -0.44444444       0.11111111       0.00000000 </v>
   <v>      -0.33333333       0.11111111       0.00000000 </v>
   <v>      -0.22222222       0.11111111       0.00000000 </v>
   <v>      -0.11111111       0.11111111      -0.00000000 </v>
   <v>      -0.00000000       0.22222222       0.00000000 </v>
   <v>       0.11111111       0.22222222      -0.00000000 </v>
   <v>       0.22222222       0.22222222       0.00000000 </v>
   <v>       0.33333333       0.22222222      -0.00000000 </v>
   <v>       0.44444444       0.22222222      -0.00000000 </v>
   <v>      -0.44444444       0.22222222       0.00000000 </v>
   <v>      -0.33333333       0.22222222      -0.00000000 </v>
   <v>      -0.22222222       0.22222222      -0.00000000 </v>
   <v>      -0.11111111       0.22222222      -0.00000000 </v>
   <v>      -0.00000000       0.33333333      -0.00000000 </v>
   <v>       0.11111111       0.33333333      -0.00000000 </v>
   <v>       0.22222222       0.33333333      -0.00000000 </v>
   <v>       0.33333333       0.33333333      -0.00000000 </v>
   <v>       0.44444444       0.33333333      -0.00000000 </v>
   <v>      -0.44444444       0.33333333      -0.00000000 </v>
   <v>      -0.33333333       0.33333333      -0.00000000 </v>
   <v>      -0.22222222       0.33333333       0.00000000 </v>
   <v>      -0.11111111       0.33333333       0.00000000 </v>
   <v>      -0.00000000       0.44444444       0.00000000 </v>
   <v>       0.11111111       0.44444444      -0.00000000 </v>
   <v>       0.22222222       0.44444444      -0.00000000 </v>
   <v>       0.33333333       0.44444444      -0.00000000 </v>
   <v>       0.44444444       0.44444444       0.00000000 </v>
   <v>      -0.44444444       0.44444444      -0.00000000 </v>
   <v>      -0.33333333       0.44444444      -0.00000000 </v>
   <v>      -0.22222222       0.44444444      -0.00000000 </v>
   <v>      -0.11111111       0.44444444      -0.00000000 </v>
   <v>      -0.00000000       0.00000000       0.11111111 </v>
   <v>       0.11111111       0.00000000       0.11111111 </v>
   <v>       0.22222222      -0.00000000       0.11111111 </v>
   <v>       0.33333333      -0.00000000       0.11111111 </v>
   <v>       0.44444444      -0.00000000       0.11111111 </v>
   <v>      -0.44444444       0.00000000       0.11111111 </v>
   <v>      -0.33333333       0.00000000       0.11111111 </v>
   <v>      -0.22222222       0.00000000       0.11111111 </v>
   <v>      -0.11111111       0.00000000       0.11111111 </v>
   <v>      -0.00000000       0.11111111       0.11111111 </v>
   <v>       0.11111111       0.11111111       0.11111111 </v>
   <v>       0.22222222       0.11111111       0.11111111 </v>
   <v>       0.33333333       0.11111111       0.11111111 </v>
   <v>       0.44444444       0.11111111       0.11111111 </v>
   <v>      -0.44444444       0.11111111       0.11111111 </v>
   <v>      -0.33333333       0.11111111       0.11111111 </v>
   <v>      -0.22222222       0.11111111       0.11111111 </v>
   <v>      -0.11111111       0.11111111       0.11111111 </v>
   <v>      -0.00000000       0.22222222       0.11111111 </v>
   <v>       0.11111111       0.22222222       0.11111111 </v>
   <v>       0.22222222       0.22222222       0.11111111 </v>
   <v>       0.33333333       0.22222222       0.11111111 </v>
   <v>       0.44444444       0.22222222       0.11111111 </v>
   <v>      -0.44444444       0.22222222       0.11111111 </v>
   <v>      -0.33333333       0.22222222       0.11111111 </v>
   <v>      -0.22222222       0.22222222       0.11111111 </v>
   <v>      -0.11111111       0.22222222       0.11111111 </v>
   <v>      -0.00000000       0.33333333       0.11111111 </v>
   <v>       0.11111111       0.33333333       0.11111111 </v>
   <v>       0.22222222       0.33333333       0.11111111 </v>
   <v>       0.33333333       0.33333333       0.11111111 </v>
   <v>       0.44444444       0.33333333       0.11111111 </v>
   <v>      -0.44444444       0.33333333       0.11111111 </v>
   <v>      -0.33333333       0.33333333       0.11111111 </v>
   <v>      -0.22222222       0.33333333       0.11111111 </v>
   <v>      -0.11111111       0.33333333       0.11111111 </v>
   <v>      -0.00000000       0.44444444       0.11111111 </v>
   <v>       0.11111111       0.44444444       0.11111111 </v>
   <v>       0.22222222       0.44444444       0.11111111 </v>
   <v>       0.33333333       0.44444444       0.11111111 </v>
   <v>       0.44444444       0.44444444       0.11111111 </v>
   <v>      -0.44444444       0.44444444       0.11111111 </v>
   <v>      -0.33333333       0.44444444       0.11111111 </v>
   <v>      -0.22222222       0.44444444       0.11111111 </v>
   <v>      -0.11111111       0.44444444       0.11111111 </v>
   <v>       0.00000000      -0.44444444       0.11111111 </v>
   <v>       0.11111111      -0.44444444       0.11111111 </v>
   <v>       0.22222222      -0.44444444       0.11111111 </v>
   <v>       0.33333333      -0.44444444       0.11111111 </v>
   <v>       0.44444444      -0.44444444       0.11111111 </v>
   <v>      -0.44444444      -0.44444444       0.11111111 </v>
   <v>      -0.33333333      -0.44444444       0.11111111 </v>
   <v>      -0.22222222      -0.44444444       0.11111111 </v>
   <v>      -0.11111111      -0.44444444       0.11111111 </v>
   <v>       0.00000000      -0.33333333       0.11111111 </v>
   <v>       0.11111111      -0.33333333       0.11111111 </v>
   <v>       0.22222222      -0.33333333       0.11111111 </v>
   <v>       0.33333333      -0.33333333       0.11111111 </v>
   <v>       0.44444444      -0.33333333       0.11111111 </v>
   <v>      -0.44444444      -0.33333333       0.11111111 </v>
   <v>      -0.33333333      -0.33333333       0.11111111 </v>
   <v>      -0.22222222      -0.33333333       0.11111111 </v>
   <v>      -0.11111111      -0.33333333       0.11111111 </v>
   <v>       0.00000000      -0.22222222       0.11111111 </v>
   <v>       0.11111111      -0.22222222       0.11111111 </v>
   <v>       0.22222222      -0.22222222       0.11111111 </v>
   <v>       0.33333333      -0.22222222       0.11111111 </v>
   <v>       0.44444444      -0.22222222       0.11111111 </v>
   <v>      -0.44444444      -0.22222222       0.11111111 </v>
   <v>      -0.33333333      -0.22222222       0.11111111 </v>
   <v>      -0.22222222      -0.22222222       0.11111111 </v>
   <v>      -0.11111111      -0.22222222       0.11111111 </v>
   <v>      -0.00000000      -0.11111111       0.11111111 </v>
   <v>       0.11111111      -0.11111111       0.11111111 </v>
   <v>       0.22222222      -0.11111111       0.11111111 </v>
   <v>       0.33333333      -0.11111111       0.11111111 </v>
   <v>       0.44444444      -0.11111111       0.11111111 </v>
   <v>      -0.44444444      -0.11111111       0.11111111 </v>
   <v>      -0.33333333      -0.11111111       0.11111111 </v>
   <v>      -0.22222222      -0.11111111       0.11111111 </v>
   <v>      -0.11111111      -0.11111111       0.11111111 </v>
   <v>       0.00000000       0.00000000       0.22222222 </v>
   <v>       0.11111111      -0.00000000       0.22222222 </v>
   <v>       0.22222222       0.00000000       0.22222222 </v>
   <v>       0.33333333      -0.00000000       0.22222222 </v>
   <v>       0.44444444      -0.00000000       0.22222222 </v>
   <v>      -0.44444444       0.00000000       0.22222222 </v>
   <v>      -0.33333333       0.00000000       0.22222222 </v>
   <v>      -0.22222222       0.00000000       0.22222222 </v>
   <v>      -0.11111111      -0.00000000       0.22222222 </v>
   <v>       0.00000000       0.11111111       0.22222222 </v>
   <v>       0.11111111       0.11111111       0.22222222 </v>
   <v>       0.22222222       0.11111111       0.22222222 </v>
   <v>       0.33333333       0.11111111       0.22222222 </v>
   <v>       0.44444444       0.11111111       0.22222222 </v>
   <v>      -0.44444444       0.11111111       0.22222222 </v>
   <v>      -0.33333333       0.11111111       0.22222222 </v>
   <v>      -0.22222222       0.11111111       0.22222222 </v>
   <v>      -0.11111111       0.11111111       0.22222222 </v>
   <v>       0.00000000       0.22222222       0.22222222 </v>
   <v>       0.11111111       0.22222222       0.22222222 </v>
   <v>       0.22222222       0.22222222       0.22222222 </v>
   <v>       0.33333333       0.22222222       0.22222222 </v>
   <v>       0.44444444       0.22222222       0.22222222 </v>
   <v>      -0.44444444       0.22222222       0.22222222 </v>
   <v>      -0.33333333       0.22222222       0.22222222 </v>
   <v>      -0.22222222       0.22222222       0.22222222 </v>
   <v>      -0.11111111       0.22222222       0.22222222 </v>
   <v>      -0.00000000       0.33333333       0.22222222 </v>
   <v>       0.11111111       0.33333333       0.22222222 </v>
   <v>       0.22222222       0.33333333       0.22222222 </v>
   <v>       0.33333333       0.33333333       0.22222222 </v>
   <v>       0.44444444       0.33333333       0.22222222 </v>
   <v>      -0.44444444       0.33333333       0.22222222 </v>
   <v>      -0.33333333       0.33333333       0.22222222 </v>
   <v>      -0.22222222       0.33333333       0.22222222 </v>
   <v>      -0.11111111       0.33333333       0.22222222 </v>
   <v>      -0.00000000       0.44444444       0.22222222 </v>
   <v>       0.11111111       0.44444444       0.22222222 </v>
   <v>       0.22222222       0.44444444       0.22222222 </v>
   <v>       0.33333333       0.44444444       0.22222222 </v>
   <v>       0.44444444       0.44444444       0.22222222 </v>
   <v>      -0.44444444       0.44444444       0.22222222 </v>
   <v>      -0.33333333       0.44444444       0.22222222 </v>
   <v>      -0.22222222       0.44444444       0.22222222 </v>
   <v>      -0.11111111       0.44444444       0.22222222 </v>
   <v>       0.00000000      -0.44444444       0.22222222 </v>
   <v>       0.11111111      -0.44444444       0.22222222 </v>
   <v>       0.22222222      -0.44444444       0.22222222 </v>
   <v>       0.33333333      -0.44444444       0.22222222 </v>
   <v>       0.44444444      -0.44444444       0.22222222 </v>
   <v>      -0.44444444      -0.44444444       0.22222222 </v>
   <v>      -0.33333333      -0.44444444       0.22222222 </v>
   <v>      -0.22222222      -0.44444444       0.22222222 </v>
   <v>      -0.11111111      -0.44444444       0.22222222 </v>
   <v>       0.00000000      -0.33333333       0.22222222 </v>
   <v>       0.11111111      -0.33333333       0.22222222 </v>
   <v>       0.22222222      -0.33333333       0.22222222 </v>
   <v>       0.33333333      -0.33333333       0.22222222 </v>
   <v>       0.44444444      -0.33333333       0.22222222 </v>
   <v>      -0.44444444      -0.33333333       0.22222222 </v>
   <v>      -0.33333333      -0.33333333       0.22222222 </v>
   <v>      -0.22222222      -0.33333333       0.22222222 </v>
   <v>      -0.11111111      -0.33333333       0.22222222 </v>
   <v>       0.00000000      -0.22222222       0.22222222 </v>
   <v>       0.11111111      -0.22222222       0.22222222 </v>
   <v>       0.22222222      -0.22222222       0.22222222 </v>
   <v>       0.33333333      -0.22222222       0.22222222 </v>
   <v>       0.44444444      -0.22222222       0.22222222 </v>
   <v>      -0.44444444      -0.22222222       0.22222222 </v>
   <v>      -0.33333333      -0.22222222       0.22222222 </v>
   <v>      -0.22222222      -0.22222222       0.22222222 </v>
   <v>      -0.11111111      -0.22222222       0.22222222 </v>
   <v>       0.00000000      -0.11111111       0.22222222 </v>
   <v>       0.11111111      -0.11111111       0.22222222 </v>
   <v>       0.22222222      -0.11111111       0.22222222 </v>
   <v>       0.33333333      -0.11111111       0.22222222 </v>
   <v>       0.44444444      -0.11111111       0.22222222 </v>
   <v>      -0.44444444      -0.11111111       0.22222222 </v>
   <v>      -0.33333333      -0.11111111       0.22222222 </v>
   <v>      -0.22222222      -0.11111111       0.22222222 </v>
   <v>      -0.11111111      -0.11111111       0.22222222 </v>
   <v>      -0.00000000       0.00000000       0.33333333 </v>
   <v>       0.11111111      -0.00000000       0.33333333 </v>
   <v>       0.22222222      -0.00000000       0.33333333 </v>
   <v>       0.33333333       0.00000000       0.33333333 </v>
   <v>       0.44444444       0.00000000       0.33333333 </v>
   <v>      -0.44444444       0.00000000       0.33333333 </v>
   <v>      -0.33333333       0.00000000       0.33333333 </v>
   <v>      -0.22222222       0.00000000       0.33333333 </v>
   <v>      -0.11111111      -0.00000000       0.33333333 </v>
   <v>       0.00000000       0.11111111       0.33333333 </v>
   <v>       0.11111111       0.11111111       0.33333333 </v>
   <v>       0.22222222       0.11111111       0.33333333 </v>
   <v>       0.33333333       0.11111111       0.33333333 </v>
   <v>       0.44444444       0.11111111       0.33333333 </v>
   <v>      -0.44444444       0.11111111       0.33333333 </v>
   <v>      -0.33333333       0.11111111       0.33333333 </v>
   <v>      -0.22222222       0.11111111       0.33333333 </v>
   <v>      -0.11111111       0.11111111       0.33333333 </v>
   <v>      -0.00000000       0.22222222       0.33333333 </v>
   <v>       0.11111111       0.22222222       0.33333333 </v>
   <v>       0.22222222       0.22222222       0.33333333 </v>
   <v>       0.33333333       0.22222222       0.33333333 </v>
   <v>       0.44444444       0.22222222       0.33333333 </v>
   <v>      -0.44444444       0.22222222       0.33333333 </v>
   <v>      -0.33333333       0.22222222       0.33333333 </v>
   <v>      -0.22222222       0.22222222       0.33333333 </v>
   <v>      -0.11111111       0.22222222       0.33333333 </v>
   <v>      -0.00000000       0.33333333       0.33333333 </v>
   <v>       0.11111111       0.33333333       0.33333333 </v>
   <v>       0.22222222       0.33333333       0.33333333 </v>
   <v>       0.33333333       0.33333333       0.33333333 </v>
   <v>       0.44444444       0.33333333       0.33333333 </v>
   <v>      -0.44444444       0.33333333       0.33333333 </v>
   <v>      -0.33333333       0.33333333       0.33333333 </v>
   <v>      -0.22222222       0.33333333       0.33333333 </v>
   <v>      -0.11111111       0.33333333       0.33333333 </v>
   <v>      -0.00000000       0.44444444       0.33333333 </v>
   <v>       0.11111111       0.44444444       0.33333333 </v>
   <v>       0.22222222       0.44444444       0.33333333 </v>
   <v>       0.33333333       0.44444444       0.33333333 </v>
   <v>       0.44444444       0.44444444       0.33333333 </v>
   <v>      -0.44444444       0.44444444       0.33333333 </v>
   <v>      -0.33333333       0.44444444       0.33333333 </v>
   <v>      -0.22222222       0.44444444       0.33333333 </v>
   <v>      -0.11111111       0.44444444       0.33333333 </v>
   <v>       0.00000000      -0.44444444       0.33333333 </v>
   <v>       0.11111111      -0.44444444       0.33333333 </v>
   <v>       0.22222222      -0.44444444       0.33333333 </v>
   <v>       0.33333333      -0.44444444       0.33333333 </v>
   <v>       0.44444444      -0.44444444       0.33333333 </v>
   <v>      -0.44444444      -0.44444444       0.33333333 </v>
   <v>      -0.33333333      -0.44444444       0.33333333 </v>
   <v>      -0.22222222      -0.44444444       0.33333333 </v>
   <v>      -0.11111111      -0.44444444       0.33333333 </v>
   <v>       0.00000000      -0.33333333       0.33333333 </v>
   <v>       0.11111111      -0.33333333       0.33333333 </v>
   <v>       0.22222222      -0.33333333       0.33333333 </v>
   <v>       0.33333333      -0.33333333       0.33333333 </v>
   <v>       0.44444444      -0.33333333       0.33333333 </v>
   <v>      -0.44444444      -0.33333333       0.33333333 </v>
   <v>      -0.33333333      -0.33333333       0.33333333 </v>
   <v>      -0.22222222      -0.33333333       0.33333333 </v>
   <v>      -0.11111111      -0.33333333       0.33333333 </v>
   <v>       0.00000000      -0.22222222       0.33333333 </v>
   <v>       0.11111111      -0.22222222       0.33333333 </v>
   <v>       0.22222222      -0.22222222       0.33333333 </v>
   <v>       0.33333333      -0.22222222       0.33333333 </v>
   <v>       0.44444444      -0.22222222       0.33333333 </v>
   <v>      -0.44444444      -0.22222222       0.33333333 </v>
   <v>      -0.33333333      -0.22222222       0.33333333 </v>
   <v>      -0.22222222      -0.22222222       0.33333333 </v>
   <v>      -0.11111111      -0.22222222       0.33333333 </v>
   <v>      -0.00000000      -0.11111111       0.33333333 </v>
   <v>       0.11111111      -0.11111111       0.33333333 </v>
   <v>       0.22222222      -0.11111111       0.33333333 </v>
   <v>       0.33333333      -0.11111111       0.33333333 </v>
   <v>       0.44444444      -0.11111111       0.33333333 </v>
   <v>      -0.44444444      -0.11111111       0.33333333 </v>
   <v>      -0.33333333      -0.11111111       0.33333333 </v>
   <v>      -0.22222222      -0.11111111       0.33333333 </v>
   <v>      -0.11111111      -0.11111111       0.33333333 </v>
   <v>       0.00000000       0.00000000       0.44444444 </v>
   <v>       0.11111111      -0.00000000       0.44444444 </v>
   <v>       0.22222222      -0.00000000       0.44444444 </v>
   <v>       0.33333333       0.00000000       0.44444444 </v>
   <v>       0.44444444       0.00000000       0.44444444 </v>
   <v>      -0.44444444       0.00000000       0.44444444 </v>
   <v>      -0.33333333       0.00000000       0.44444444 </v>
   <v>      -0.22222222      -0.00000000       0.44444444 </v>
   <v>      -0.11111111       0.00000000       0.44444444 </v>
   <v>      -0.00000000       0.11111111       0.44444444 </v>
   <v>       0.11111111       0.11111111       0.44444444 </v>
   <v>       0.22222222       0.11111111       0.44444444 </v>
   <v>       0.33333333       0.11111111       0.44444444 </v>
   <v>       0.44444444       0.11111111       0.44444444 </v>
   <v>      -0.44444444       0.11111111       0.44444444 </v>
   <v>      -0.33333333       0.11111111       0.44444444 </v>
   <v>      -0.22222222       0.11111111       0.44444444 </v>
   <v>      -0.11111111       0.11111111       0.44444444 </v>
   <v>      -0.00000000       0.22222222       0.44444444 </v>
   <v>       0.11111111       0.22222222       0.44444444 </v>
   <v>       0.22222222       0.22222222       0.44444444 </v>
   <v>       0.33333333       0.22222222       0.44444444 </v>
   <v>       0.44444444       0.22222222       0.44444444 </v>
   <v>      -0.44444444       0.22222222       0.44444444 </v>
   <v>      -0.33333333       0.22222222       0.44444444 </v>
   <v>      -0.22222222       0.22222222       0.44444444 </v>
   <v>      -0.11111111       0.22222222       0.44444444 </v>
   <v>      -0.00000000       0.33333333       0.44444444 </v>
   <v>       0.11111111       0.33333333       0.44444444 </v>
   <v>       0.22222222       0.33333333       0.44444444 </v>
   <v>       0.33333333       0.33333333       0.44444444 </v>
   <v>       0.44444444       0.33333333       0.44444444 </v>
   <v>      -0.44444444       0.33333333       0.44444444 </v>
   <v>      -0.33333333       0.33333333       0.44444444 </v>
   <v>      -0.22222222       0.33333333       0.44444444 </v>
   <v>      -0.11111111       0.33333333       0.44444444 </v>
   <v>       0.00000000       0.44444444       0.44444444 </v>
   <v>       0.11111111       0.44444444       0.44444444 </v>
   <v>       0.22222222       0.44444444       0.44444444 </v>
   <v>       0.33333333       0.44444444       0.44444444 </v>
   <v>       0.44444444       0.44444444       0.44444444 </v>
   <v>      -0.44444444       0.44444444       0.44444444 </v>
   <v>      -0.33333333       0.44444444       0.44444444 </v>
   <v>      -0.22222222       0.44444444       0.44444444 </v>
   <v>      -0.11111111       0.44444444       0.44444444 </v>
   <v>       0.00000000      -0.44444444       0.44444444 </v>
   <v>       0.11111111      -0.44444444       0.44444444 </v>
   <v>       0.22222222      -0.44444444       0.44444444 </v>
   <v>       0.33333333      -0.44444444       0.44444444 </v>
   <v>       0.44444444      -0.44444444       0.44444444 </v>
   <v>      -0.44444444      -0.44444444       0.44444444 </v>
   <v>      -0.33333333      -0.44444444       0.44444444 </v>
   <v>      -0.22222222      -0.44444444       0.44444444 </v>
   <v>      -0.11111111      -0.44444444       0.44444444 </v>
   <v>      -0.00000000      -0.33333333       0.44444444 </v>
   <v>       0.11111111      -0.33333333       0.44444444 </v>
   <v>       0.22222222      -0.33333333       0.44444444 </v>
   <v>       0.33333333      -0.33333333       0.44444444 </v>
   <v>       0.44444444      -0.33333333       0.44444444 </v>
   <v>      -0.44444444      -0.33333333       0.44444444 </v>
   <v>      -0.33333333      -0.33333333       0.44444444 </v>
   <v>      -0.22222222      -0.33333333       0.44444444 </v>
   <v>      -0.11111111      -0.33333333       0.44444444 </v>
   <v>       0.00000000      -0.22222222       0.44444444 </v>
   <v>       0.11111111      -0.22222222       0.44444444 </v>
   <v>       0.22222222      -0.22222222       0.44444444 </v>
   <v>       0.33333333      -0.22222222       0.44444444 </v>
   <v>       0.44444444      -0.22222222       0.44444444 </v>
   <v>      -0.44444444      -0.22222222       0.44444444 </v>
   <v>      -0.33333333      -0.22222222       0.44444444 </v>
   <v>      -0.22222222      -0.22222222       0.44444444 </v>
   <v>      -0.11111111      -0.22222222       0.44444444 </v>
   <v>       0.00000000      -0.11111111       0.44444444 </v>
   <v>       0.11111111      -0.11111111       0.44444444 </v>
   <v>       0.22222222      -0.11111111       0.44444444 </v>
   <v>       0.33333333      -0.11111111       0.44444444 </v>
   <v>       0.44444444      -0.11111111       0.44444444 </v>
   <v>      -0.44444444      -0.11111111       0.44444444 </v>
   <v>      -0.33333333      -0.11111111       0.44444444 </v>
   <v>      -0.22222222      -0.11111111       0.44444444 </v>
   <v>      -0.11111111      -0.11111111       0.44444444 </v>
  </varray>
  <varray name="weights" >
   <v>       0.00137174 </v>
   <v>       0.00274348 </v>
   <v>       0.00274348 </v>
   <v>       0.00274348 </v>
   <v>       0.00274348 </v>
   <v>       0.00274348 </v>
   <v>       0.00274348 </v>
   <v>       0.00274348 </v>
   <v>       0.00274348 </v>
   <v>       0.00274348 </v>
   <v>       0.00274348 </v>
   <v>       0.00274348 </v>
   <v>       0.00274348 </v>
   <v>       0.00274348 </v>
   <v>       0.00274348 </v>
   <v>       0.00274348 </v>
   <v>       0.00274348 </v>
   <v>       0.00274348 </v>
   <v>       0.00274348 </v>
   <v>       0.00274348 </v>
   <v>       0.00274348 </v>
   <v>       0.00274348 </v>
   <v>       0.00274348 </v>
   <v>       0.00274348 </v>
   <v>       0.00274348 </v>
   <v>       0.00274348 </v>
   <v>       0.00274348 </v>
   <v>       0.00274348 </v>
   <v>       0.00274348 </v>
   <v>       0.00274348 </v>
   <v>       0.00274348 </v>
   <v>       0.00274348 </v>
   <v>       0.00274348 </v>
   <v>       0.00274348 </v>
   <v>       0.00274348 </v>
   <v>       0.00274348 </v>
   <v>       0.00274348 </v>
   <v>       0.00274348 </v>
   <v>       0.00274348 </v>
   <v>       0.00274348 </v>
   <v>       0.00274348 </v>
   <v>       0.00274348 </v>
   <v>       0.00274348 </v>
   <v>       0.00274348 </v>
   <v>       0.00274348 </v>
   <v>       0.00274348 </v>
   <v>       0.00274348 </v>
   <v>       0.00274348 </v>
   <v>       0.00274348 </v>
   <v>       0.00274348 </v>
   <v>       0.00274348 </v>
   <v>       0.00274348 </v>
   <v>       0.00274348 </v>
   <v>       0.00274348 </v>
   <v>       0.00274348 </v>
   <v>       0.00274348 </v>
   <v>       0.00274348 </v>
   <v>       0.00274348 </v>
   <v>       0.00274348 </v>
   <v>       0.00274348 </v>
   <v>       0.00274348 </v>
   <v>       0.00274348 </v>
   <v>       0.00274348 </v>
   <v>       0.00274348 </v>
   <v>       0.00274348 </v>
   <v>       0.00274348 </v>
   <v>       0.00274348 </v>
   <v>       0.00274348 </v>
   <v>       0.00274348 </v>
   <v>       0.00274348 </v>
   <v>       0.00274348 </v>
   <v>       0.00274348 </v>
   <v>       0.00274348 </v>
   <v>       0.00274348 </v>
   <v>       0.00274348 </v>
   <v>       0.00274348 </v>
   <v>       0.00274348 </v>
   <v>       0.00274348 </v>
   <v>       0.00274348 </v>
   <v>       0.00274348 </v>
   <v>       0.00274348 </v>
   <v>       0.00274348 </v>
   <v>       0.00274348 </v>
   <v>       0.00274348 </v>
   <v>       0.00274348 </v>
   <v>       0.00274348 </v>
   <v>       0.00274348 </v>
   <v>       0.00274348 </v>
   <v>       0.00274348 </v>
   <v>       0.00274348 </v>
   <v>       0.00274348 </v>
   <v>       0.00274348 </v>
   <v>       0.00274348 </v>
   <v>       0.00274348 </v>
   <v>       0.00274348 </v>
   <v>       0.00274348 </v>
   <v>       0.00274348 </v>
   <v>       0.00274348 </v>
   <v>       0.00274348 </v>
   <v>       0.00274348 </v>
   <v>       0.00274348 </v>
   <v>       0.00274348 </v>
   <v>       0.00274348 </v>
   <v>       0.00274348 </v>
   <v>       0.00274348 </v>
   <v>       0.00274348 </v>
   <v>       0.00274348 </v>
   <v>       0.00274348 </v>
   <v>       0.00274348 </v>
   <v>       0.00274348 </v>
   <v>       0.00274348 </v>
   <v>       0.00274348 </v>
   <v>       0.00274348 </v>
   <v>       0.00274348 </v>
   <v>       0.00274348 </v>
   <v>       0.00274348 </v>
   <v>       0.00274348 </v>
   <v>       0.00274348 </v>
   <v>       0.00274348 </v>
   <v>       0.00274348 </v>
   <v>       0.00274348 </v>
   <v>       0.00274348 </v>
   <v>       0.00274348 </v>
   <v>       0.00274348 </v>
   <v>       0.00274348 </v>
   <v>       0.00274348 </v>
   <v>       0.00274348 </v>
   <v>       0.00274348 </v>
   <v>       0.00274348 </v>
   <v>       0.00274348 </v>
   <v>       0.00274348 </v>
   <v>       0.00274348 </v>
   <v>       0.00274348 </v>
   <v>       0.00274348 </v>
   <v>       0.00274348 </v>
   <v>       0.00274348 </v>
   <v>       0.00274348 </v>
   <v>       0.00274348 </v>
   <v>       0.00274348 </v>
   <v>       0.00274348 </v>
   <v>       0.00274348 </v>
   <v>       0.00274348 </v>
   <v>       0.00274348 </v>
   <v>       0.00274348 </v>
   <v>       0.00274348 </v>
   <v>       0.00274348 </v>
   <v>       0.00274348 </v>
   <v>       0.00274348 </v>
   <v>       0.00274348 </v>
   <v>       0.00274348 </v>
   <v>       0.00274348 </v>
   <v>       0.00274348 </v>
   <v>       0.00274348 </v>
   <v>       0.00274348 </v>
   <v>       0.00274348 </v>
   <v>       0.00274348 </v>
   <v>       0.00274348 </v>
   <v>       0.00274348 </v>
   <v>       0.00274348 </v>
   <v>       0.00274348 </v>
   <v>       0.00274348 </v>
   <v>       0.00274348 </v>
   <v>       0.00274348 </v>
   <v>       0.00274348 </v>
   <v>       0.00274348 </v>
   <v>       0.00274348 </v>
   <v>       0.00274348 </v>
   <v>       0.00274348 </v>
   <v>       0.00274348 </v>
   <v>       0.00274348 </v>
   <v>       0.00274348 </v>
   <v>       0.00274348 </v>
   <v>       0.00274348 </v>
   <v>       0.00274348 </v>
   <v>       0.00274348 </v>
   <v>       0.00274348 </v>
   <v>       0.00274348 </v>
   <v>       0.00274348 </v>
   <v>       0.00274348 </v>
   <v>       0.00274348 </v>
   <v>       0.00274348 </v>
   <v>       0.00274348 </v>
   <v>       0.00274348 </v>
   <v>       0.00274348 </v>
   <v>       0.00274348 </v>
   <v>       0.00274348 </v>
   <v>       0.00274348 </v>
   <v>       0.00274348 </v>
   <v>       0.00274348 </v>
   <v>       0.00274348 </v>
   <v>       0.00274348 </v>
   <v>       0.00274348 </v>
   <v>       0.00274348 </v>
   <v>       0.00274348 </v>
   <v>       0.00274348 </v>
   <v>       0.00274348 </v>
   <v>       0.00274348 </v>
   <v>       0.00274348 </v>
   <v>       0.00274348 </v>
   <v>       0.00274348 </v>
   <v>       0.00274348 </v>
   <v>       0.00274348 </v>
   <v>       0.00274348 </v>
   <v>       0.00274348 </v>
   <v>       0.00274348 </v>
   <v>       0.00274348 </v>
   <v>       0.00274348 </v>
   <v>       0.00274348 </v>
   <v>       0.00274348 </v>
   <v>       0.00274348 </v>
   <v>       0.00274348 </v>
   <v>       0.00274348 </v>
   <v>       0.00274348 </v>
   <v>       0.00274348 </v>
   <v>       0.00274348 </v>
   <v>       0.00274348 </v>
   <v>       0.00274348 </v>
   <v>       0.00274348 </v>
   <v>       0.00274348 </v>
   <v>       0.00274348 </v>
   <v>       0.00274348 </v>
   <v>       0.00274348 </v>
   <v>       0.00274348 </v>
   <v>       0.00274348 </v>
   <v>       0.00274348 </v>
   <v>       0.00274348 </v>
   <v>       0.00274348 </v>
   <v>       0.00274348 </v>
   <v>       0.00274348 </v>
   <v>       0.00274348 </v>
   <v>       0.00274348 </v>
   <v>       0.00274348 </v>
   <v>       0.00274348 </v>
   <v>       0.00274348 </v>
   <v>       0.00274348 </v>
   <v>       0.00274348 </v>
   <v>       0.00274348 </v>
   <v>       0.00274348 </v>
   <v>       0.00274348 </v>
   <v>       0.00274348 </v>
   <v>       0.00274348 </v>
   <v>       0.00274348 </v>
   <v>       0.00274348 </v>
   <v>       0.00274348 </v>
   <v>       0.00274348 </v>
   <v>       0.00274348 </v>
   <v>       0.00274348 </v>
   <v>       0.00274348 </v>
   <v>       0.00274348 </v>
   <v>       0.00274348 </v>
   <v>       0.00274348 </v>
   <v>       0.00274348 </v>
   <v>       0.00274348 </v>
   <v>       0.00274348 </v>
   <v>       0.00274348 </v>
   <v>       0.00274348 </v>
   <v>       0.00274348 </v>
   <v>       0.00274348 </v>
   <v>       0.00274348 </v>
   <v>       0.00274348 </v>
   <v>       0.00274348 </v>
   <v>       0.00274348 </v>
   <v>       0.00274348 </v>
   <v>       0.00274348 </v>
   <v>       0.00274348 </v>
   <v>       0.00274348 </v>
   <v>       0.00274348 </v>
   <v>       0.00274348 </v>
   <v>       0.00274348 </v>
   <v>       0.00274348 </v>
   <v>       0.00274348 </v>
   <v>       0.00274348 </v>
   <v>       0.00274348 </v>
   <v>       0.00274348 </v>
   <v>       0.00274348 </v>
   <v>       0.00274348 </v>
   <v>       0.00274348 </v>
   <v>       0.00274348 </v>
   <v>       0.00274348 </v>
   <v>       0.00274348 </v>
   <v>       0.00274348 </v>
   <v>       0.00274348 </v>
   <v>       0.00274348 </v>
   <v>       0.00274348 </v>
   <v>       0.00274348 </v>
   <v>       0.00274348 </v>
   <v>       0.00274348 </v>
   <v>       0.00274348 </v>
   <v>       0.00274348 </v>
   <v>       0.00274348 </v>
   <v>       0.00274348 </v>
   <v>       0.00274348 </v>
   <v>       0.00274348 </v>
   <v>       0.00274348 </v>
   <v>       0.00274348 </v>
   <v>       0.00274348 </v>
   <v>       0.00274348 </v>
   <v>       0.00274348 </v>
   <v>       0.00274348 </v>
   <v>       0.00274348 </v>
   <v>       0.00274348 </v>
   <v>       0.00274348 </v>
   <v>       0.00274348 </v>
   <v>       0.00274348 </v>
   <v>       0.00274348 </v>
   <v>       0.00274348 </v>
   <v>       0.00274348 </v>
   <v>       0.00274348 </v>
   <v>       0.00274348 </v>
   <v>       0.00274348 </v>
   <v>       0.00274348 </v>
   <v>       0.00274348 </v>
   <v>       0.00274348 </v>
   <v>       0.00274348 </v>
   <v>       0.00274348 </v>
   <v>       0.00274348 </v>
   <v>       0.00274348 </v>
   <v>       0.00274348 </v>
   <v>       0.00274348 </v>
   <v>       0.00274348 </v>
   <v>       0.00274348 </v>
   <v>       0.00274348 </v>
   <v>       0.00274348 </v>
   <v>       0.00274348 </v>
   <v>       0.00274348 </v>
   <v>       0.00274348 </v>
   <v>       0.00274348 </v>
   <v>       0.00274348 </v>
   <v>       0.00274348 </v>
   <v>       0.00274348 </v>
   <v>       0.00274348 </v>
   <v>       0.00274348 </v>
   <v>       0.00274348 </v>
   <v>       0.00274348 </v>
   <v>       0.00274348 </v>
   <v>       0.00274348 </v>
   <v>       0.00274348 </v>
   <v>       0.00274348 </v>
   <v>       0.00274348 </v>
   <v>       0.00274348 </v>
   <v>       0.00274348 </v>
   <v>       0.00274348 </v>
   <v>       0.00274348 </v>
   <v>       0.00274348 </v>
   <v>       0.00274348 </v>
   <v>       0.00274348 </v>
   <v>       0.00274348 </v>
   <v>       0.00274348 </v>
   <v>       0.00274348 </v>
   <v>       0.00274348 </v>
   <v>       0.00274348 </v>
   <v>       0.00274348 </v>
   <v>       0.00274348 </v>
   <v>       0.00274348 </v>
   <v>       0.00274348 </v>
   <v>       0.00274348 </v>
   <v>       0.00274348 </v>
   <v>       0.00274348 </v>
   <v>       0.00274348 </v>
   <v>       0.00274348 </v>
   <v>       0.00274348 </v>
   <v>       0.00274348 </v>
   <v>       0.00274348 </v>
   <v>       0.00274348 </v>
   <v>       0.00274348 </v>
  </varray>
 </kpoints>
 <parameters>
  <separator name="general" >
   <i type="string" name="SYSTEM">Og_FCC</i>
   <i type="logical" name="LCOMPAT"> F  </i>
  </separator>
  <separator name="electronic" >
   <i type="string" name="PREC">accura</i>
   <i name="ENMAX">    600.00000000</i>
   <i name="ENAUG">    361.02500000</i>
   <i name="EDIFF">      0.00000001</i>
   <i type="int" name="IALGO">    68</i>
   <i type="int" name="IWAVPR">    11</i>
   <i type="int" name="NBANDS">    32</i>
   <i name="NELECT">     18.00000000</i>
   <i type="int" name="TURBO">     0</i>
   <i type="int" name="IRESTART">     0</i>
   <i type="int" name="NREBOOT">     0</i>
   <i type="int" name="NMIN">     0</i>
   <i name="EREF">      0.00000000</i>
   <separator name="electronic smearing" >
    <i type="int" name="ISMEAR">     1</i>
    <i name="SIGMA">      0.10000000</i>
    <i name="KSPACING">      0.20000000</i>
    <i type="logical" name="KGAMMA"> T  </i>
   </separator>
   <separator name="electronic projectors" >
    <i type="logical" name="LREAL"> F  </i>
    <v name="ROPT">      0.00000000</v>
    <i type="int" name="LMAXPAW">  -100</i>
    <i type="int" name="LMAXMIX">     2</i>
    <i type="logical" name="NLSPLINE"> F  </i>
   </separator>
   <separator name="electronic startup" >
    <i type="int" name="ISTART">     0</i>
    <i type="int" name="ICHARG">     2</i>
    <i type="int" name="INIWAV">     1</i>
   </separator>
   <separator name="electronic spin" >
    <i type="int" name="ISPIN">     1</i>
    <i type="logical" name="LNONCOLLINEAR"> T  </i>
    <v name="MAGMOM">      1.00000000      1.00000000      1.00000000</v>
    <i name="NUPDOWN">     -1.00000000</i>
    <i type="logical" name="LSORBIT"> T  </i>
    <v name="SAXIS">      0.00000000      0.00000000      1.00000000</v>
    <i type="logical" name="LSPIRAL"> F  </i>
    <v name="QSPIRAL">      0.00000000      0.00000000      0.00000000</v>
    <i type="logical" name="LZEROZ"> F  </i>
   </separator>
   <separator name="electronic exchange-correlation" >
    <i type="logical" name="LASPH"> F  </i>
    <i type="logical" name="LMETAGGA"> F  </i>
   </separator>
   <separator name="electronic convergence" >
    <i type="int" name="NELM">   100</i>
    <i type="int" name="NELMDL">    -5</i>
    <i type="int" name="NELMIN">     5</i>
    <i name="ENINI">    600.00000000</i>
    <separator name="electronic convergence detail" >
     <i type="logical" name="LDIAG"> T  </i>
     <i type="logical" name="LSUBROT"> F  </i>
     <i name="WEIMIN">      0.00100000</i>
     <i name="EBREAK">      0.00000000</i>
     <i name="DEPER">      0.30000000</i>
     <i type="int" name="NRMM">     4</i>
     <i name="TIME">      0.40000000</i>
    </separator>
   </separator>
   <separator name="electronic mixer" >
    <i name="AMIX">      0.40000000</i>
    <i name="BMIX">      1.00000000</i>
    <i name="AMIN">      0.10000000</i>
    <i name="AMIX_MAG">      1.60000000</i>
    <i name="BMIX_MAG">      1.00000000</i>
    <separator name="electronic mixer details" >
     <i type="int" name="IMIX">     4</i>
     <i type="logical" name="MIXFIRST"> F  </i>
     <i type="int" name="MAXMIX">    50</i>
     <i name="WC">    100.00000000</i>
     <i type="int" name="INIMIX">     1</i>
     <i type="int" name="MIXPRE">     1</i>
     <i type="int" name="MREMOVE">     5</i>
    </separator>
   </separator>
   <separator name="electronic dipolcorrection" >
    <i type="logical" name="LDIPOL"> F  </i>
    <i type="logical" name="LMONO"> F  </i>
    <i type="int" name="IDIPOL">     0</i>
    <i name="EPSILON">      1.00000000</i>
    <v name="DIPOL">   -100.00000000   -100.00000000   -100.00000000</v>
    <i name="EFIELD">      0.00000000</i>
   </separator>
  </separator>
  <separator name="grids" >
   <i type="int" name="NGX">    36</i>
   <i type="int" name="NGY">    36</i>
   <i type="int" name="NGZ">    36</i>
   <i type="int" name="NGXF">    72</i>
   <i type="int" name="NGYF">    72</i>
   <i type="int" name="NGZF">    72</i>
   <i type="logical" name="ADDGRID"> T  </i>
  </separator>
  <separator name="ionic" >
   <i type="int" name="NSW">    49</i>
   <i type="int" name="IBRION">     6</i>
   <i type="int" name="MDALGO">     0</i>
   <i type="int" name="ISIF">     3</i>
   <i name="PSTRESS">      0.00000000</i>
   <i name="EDIFFG">      0.00001000</i>
   <i type="int" name="NFREE">     2</i>
   <i name="POTIM">      0.02000000</i>
   <i name="SMASS">     -3.00000000</i>
   <i name="SCALEE">      1.00000000</i>
  </separator>
  <separator name="ionic md" >
   <i name="TEBEG">      0.00010000</i>
   <i name="TEEND">      0.00010000</i>
   <i type="int" name="NBLOCK">     1</i>
   <i type="int" name="KBLOCK">    49</i>
   <i type="int" name="NPACO">   256</i>
   <i name="APACO">     16.00000000</i>
  </separator>
  <separator name="symmetry" >
   <i type="int" name="ISYM">     2</i>
   <i name="SYMPREC">      0.00000010</i>
  </separator>
  <separator name="dos" >
   <i type="int" name="LORBIT">     0</i>
   <v name="RWIGS">     -1.00000000</v>
   <i type="int" name="NEDOS">   301</i>
   <i name="EMIN">     10.00000000</i>
   <i name="EMAX">    -10.00000000</i>
   <i name="EFERMI">      0.00000000</i>
  </separator>
  <separator name="writing" >
   <i type="int" name="NWRITE">     2</i>
   <i type="logical" name="LWAVE"> F  </i>
   <i type="logical" name="LDOWNSAMPLE"> F  </i>
   <i type="logical" name="LCHARG"> F  </i>
   <i type="logical" name="LPARD"> F  </i>
   <i type="logical" name="LVTOT"> F  </i>
   <i type="logical" name="LVHAR"> F  </i>
   <i type="logical" name="LELF"> F  </i>
   <i type="logical" name="LOPTICS"> F  </i>
   <v name="STM">      0.00000000      0.00000000      0.00000000      0.00000000      0.00000000      0.00000000      0.00000000</v>
  </separator>
  <separator name="performance" >
   <i type="int" name="NPAR">    16</i>
   <i type="int" name="NSIM">     4</i>
   <i type="int" name="NBLK">    -1</i>
   <i type="logical" name="LPLANE"> T  </i>
   <i type="logical" name="LSCALAPACK"> T  </i>
   <i type="logical" name="LSCAAWARE"> F  </i>
   <i type="logical" name="LSCALU"> F  </i>
   <i type="logical" name="LASYNC"> F  </i>
   <i type="logical" name="LORBITALREAL"> F  </i>
  </separator>
  <separator name="miscellaneous" >
   <i type="int" name="IDIOT">     3</i>
   <i type="int" name="ISPECIAL">     0</i>
   <i type="logical" name="LMUSIC"> F  </i>
   <v name="POMASS">      0.01000000</v>
   <v name="DARWINR">      0.00000000</v>
   <v name="DARWINV">      1.00000000</v>
   <i type="logical" name="LCORR"> T  </i>
  </separator>
  <i type="logical" name="GGA_COMPAT"> F  </i>
  <i type="logical" name="LBERRY"> F  </i>
  <i type="int" name="ICORELEVEL">     0</i>
  <i type="logical" name="LDAU"> F  </i>
  <i type="int" name="I_CONSTRAINED_M">     0</i>
  <separator name="electronic exchange-correlation" >
   <i type="string" name="GGA">PE</i>
   <i type="int" name="VOSKOWN">     0</i>
   <i type="logical" name="LHFCALC"> F  </i>
   <i type="string" name="PRECFOCK"></i>
   <i type="logical" name="LSYMGRAD"> F  </i>
   <i type="logical" name="LHFONE"> F  </i>
   <i type="logical" name="LRHFCALC"> F  </i>
   <i type="logical" name="LTHOMAS"> F  </i>
   <i type="logical" name="LMODELHF"> F  </i>
   <i name="ENCUT4O">     -1.00000000</i>
   <i type="int" name="EXXOEP">     0</i>
   <i type="int" name="FOURORBIT">     0</i>
   <i name="AEXX">      0.00000000</i>
   <i name="HFALPHA">      0.00000000</i>
   <i name="MCALPHA">      0.00000000</i>
   <i name="ALDAX">      1.00000000</i>
   <i name="AGGAX">      1.00000000</i>
   <i name="ALDAC">      1.00000000</i>
   <i name="AGGAC">      1.00000000</i>
   <i type="int" name="NKREDX">     1</i>
   <i type="int" name="NKREDY">     1</i>
   <i type="int" name="NKREDZ">     1</i>
   <i type="logical" name="SHIFTRED"> F  </i>
   <i type="logical" name="ODDONLY"> F  </i>
   <i type="logical" name="EVENONLY"> F  </i>
   <i type="int" name="LMAXFOCK">     0</i>
   <i type="int" name="NMAXFOCKAE">     0</i>
   <i type="logical" name="LFOCKAEDFT"> F  </i>
   <i name="HFSCREEN">      0.00000000</i>
   <i name="HFSCREENC">      0.00000000</i>
   <i type="int" name="NBANDSGWLOW">     0</i>
  </separator>
  <separator name="vdW DFT" >
   <i type="logical" name="LUSE_VDW"> F  </i>
   <i name="Zab_VDW">     -0.84910000</i>
   <i name="PARAM1">      0.12340000</i>
   <i name="PARAM2">      1.00000000</i>
   <i name="PARAM3">      0.00000000</i>
  </separator>
  <separator name="model GW" >
   <i type="int" name="MODEL_GW">     0</i>
   <i name="MODEL_EPS0">     34.86895852</i>
   <i name="MODEL_ALPHA">      1.00000000</i>
  </separator>
  <separator name="linear response parameters" >
   <i type="logical" name="LEPSILON"> F  </i>
   <i type="logical" name="LRPA"> F  </i>
   <i type="logical" name="LNABLA"> F  </i>
   <i type="logical" name="LVEL"> F  </i>
   <i type="int" name="KINTER">     0</i>
   <i name="CSHIFT">      0.10000000</i>
   <i name="OMEGAMAX">     -1.00000000</i>
   <i name="DEG_THRESHOLD">      0.00200000</i>
   <i name="RTIME">     -0.10000000</i>
   <i name="WPLASMAI">      0.00000000</i>
   <v name="DFIELD">      0.00000000      0.00000000      0.00000000</v>
   <v name="WPLASMA">      0.00000000      0.00000000      0.00000000      0.00000000      0.00000000      0.00000000      0.00000000      0.00000000      0.00000000</v>
  </separator>
  <separator name="orbital magnetization" >
   <i type="logical" name="NUCIND"> F  </i>
   <v name="MAGPOS">      0.00000000      0.00000000      0.00000000</v>
   <i type="logical" name="LNICSALL"> T  </i>
   <i type="logical" name="ORBITALMAG"> F  </i>
   <i type="logical" name="LMAGBLOCH"> F  </i>
   <i type="logical" name="LCHIMAG"> F  </i>
   <i type="logical" name="LGAUGE"> T  </i>
   <i type="int" name="MAGATOM">     0</i>
   <v name="MAGDIPOL">      0.00000000      0.00000000      0.00000000</v>
   <v name="AVECCONST">      0.00000000      0.00000000      0.00000000</v>
  </separator>
  <separator name="response functions" >
   <i type="logical" name="LADDER"> F  </i>
   <i type="logical" name="LRPAFORCE"> F  </i>
   <i type="logical" name="LFXC"> F  </i>
   <i type="logical" name="LHARTREE"> T  </i>
   <i type="int" name="IBSE">     0</i>
   <v type="int" name="KPOINT">    -1     0     0     0</v>
   <i type="logical" name="LTCTE"> F  </i>
   <i type="logical" name="LTETE"> F  </i>
   <i type="logical" name="LTRIPLET"> F  </i>
   <i type="logical" name="LFXCEPS"> F  </i>
   <i type="logical" name="LFXHEG"> F  </i>
   <i type="int" name="NATURALO">     2</i>
   <i type="logical" name="L2ORDER"> F  </i>
   <i type="logical" name="LMP2LT"> F  </i>
   <i type="logical" name="LUSEW"> F  </i>
   <i name="ENCUTGW">     -2.00000000</i>
   <i name="ENCUTGWSOFT">     -2.00000000</i>
   <i name="ENCUTLF">     -1.00000000</i>
   <i type="int" name="LMAXMP2">    -1</i>
   <i name="SCISSOR">      0.00000000</i>
   <i type="int" name="NOMEGA">     0</i>
   <i type="int" name="NOMEGAR">     0</i>
   <i type="int" name="NBANDSGW">    -1</i>
   <i type="int" name="NBANDSO">    -1</i>
   <i type="int" name="NBANDSV">    -1</i>
   <i type="int" name="NELM">   100</i>
   <i type="int" name="NELMHF">     1</i>
   <i type="int" name="DIM">     3</i>
   <i type="int" name="ANTIRES">     0</i>
   <i name="OMEGAMAX">    -30.00000000</i>
   <i name="OMEGAMIN">    -30.00000000</i>
   <i name="OMEGATL">   -200.00000000</i>
   <i type="int" name="OMEGAGRID">   140</i>
   <i name="CSHIFT">     -0.10000000</i>
   <i type="logical" name="SELFENERGY"> F  </i>
   <i type="logical" name="LSPECTRAL"> F  </i>
   <i type="logical" name="LSPECTRALGW"> F  </i>
   <i type="logical" name="LSINGLES"> F  </i>
   <i type="logical" name="LFERMIGW"> F  </i>
   <i type="logical" name="ODDONLYGW"> F  </i>
   <i type="logical" name="EVENONLYGW"> F  </i>
   <i type="int" name="NKREDLFX">     1</i>
   <i type="int" name="NKREDLFY">     1</i>
   <i type="int" name="NKREDLFZ">     1</i>
   <i type="int" name="MAXMEM">  2800</i>
   <i type="int" name="TELESCOPE">     0</i>
   <i type="int" name="TAUPAR">     1</i>
   <i type="int" name="OMEGAPAR">    -1</i>
   <i name="LAMBDA">      1.00000000</i>
  </separator>
  <separator name="External order field" >
   <i name="OFIELD_KAPPA">      0.00000000</i>
   <v name="OFIELD_K">      0.00000000      0.00000000      0.00000000</v>
   <i name="OFIELD_Q6_NEAR">      0.00000000</i>
   <i name="OFIELD_Q6_FAR">      0.00000000</i>
   <i name="OFIELD_A">      0.00000000</i>
  </separator>
 </parameters>
 <atominfo>
  <atoms>       1 </atoms>
  <types>       1 </types>
  <array name="atoms" >
   <dimension dim="1">ion</dimension>
   <field type="string">element</field>
   <field type="int">atomtype</field>
   <set>
    <rc><c>Og</c><c>   1</c></rc>
   </set>
  </array>
  <array name="atomtypes" >
   <dimension dim="1">type</dimension>
   <field type="int">atomspertype</field>
   <field type="string">element</field>
   <field>mass</field>
   <field>valence</field>
   <field type="string">pseudopotential</field>
   <set>
    <rc><c>   1</c><c>Og</c><c>      0.01000000</c><c>     18.00000000</c><c>  PAW Og, JanMewes Oct 18               </c></rc>
   </set>
  </array>
 </atominfo>
 <structure name="initialpos" >
  <crystal>
   <varray name="basis" >
    <v>       4.34778014       0.00000000       0.00000000 </v>
    <v>       2.17389007       3.76528805      -0.00000000 </v>
    <v>       2.17389007       1.25509602       3.54994762 </v>
   </varray>
   <i name="volume">     58.11493087 </i>
   <varray name="rec_basis" >
    <v>       0.23000243      -0.13279197      -0.09389810 </v>
    <v>       0.00000000       0.26558393      -0.09389810 </v>
    <v>      -0.00000000       0.00000000       0.28169430 </v>
   </varray>
  </crystal>
  <varray name="positions" >
   <v>       0.00000000       0.00000000       0.00000000 </v>
  </varray>
 </structure>
 <calculation>
  <scstep>
   <time name="dav">   15.33   15.32</time>
   <time name="total">   15.51   15.51</time>
   <energy>
    <i name="alphaZ">     65.65019596 </i>
    <i name="ewald">  -1739.46137932 </i>
    <i name="hartreedc">   -661.33100310 </i>
    <i name="XCdc">    -69.16142381 </i>
    <i name="pawpsdc">   2268.28454800 </i>
    <i name="pawaedc">  -2184.08492831 </i>
    <i name="eentropy">     -0.00009779 </i>
    <i name="bandstr">    -56.44038518 </i>
    <i name="atom">   2640.52872706 </i>
    <i name="e_fr_energy">    263.98425351 </i>
    <i name="e_wo_entrp">    263.98435131 </i>
    <i name="e_0_energy">    263.98428611 </i>
   </energy>
  </scstep>
  <scstep>
   <time name="dav">   18.71   18.70</time>
   <time name="total">   18.71   18.71</time>
   <energy>
    <i name="e_fr_energy">     -5.23308593 </i>
    <i name="e_wo_entrp">     -5.23307314 </i>
    <i name="e_0_energy">     -5.23308167 </i>
   </energy>
  </scstep>
  <scstep>
   <time name="dav">   20.56   20.55</time>
   <time name="total">   20.56   20.56</time>
   <energy>
    <i name="e_fr_energy">    -13.22200914 </i>
    <i name="e_wo_entrp">    -13.22202316 </i>
    <i name="e_0_energy">    -13.22201381 </i>
   </energy>
  </scstep>
  <scstep>
   <time name="dav">   21.04   21.03</time>
   <time name="total">   21.04   21.03</time>
   <energy>
    <i name="e_fr_energy">    -13.37889024 </i>
    <i name="e_wo_entrp">    -13.37890395 </i>
    <i name="e_0_energy">    -13.37889481 </i>
   </energy>
  </scstep>
  <scstep>
   <time name="dav">   21.06   21.05</time>
   <time name="total">   22.42   22.41</time>
   <energy>
    <i name="e_fr_energy">    -13.38222835 </i>
    <i name="e_wo_entrp">    -13.38224206 </i>
    <i name="e_0_energy">    -13.38223292 </i>
   </energy>
  </scstep>
  <scstep>
   <time name="diag">    4.27    4.27</time>
   <time name="diis">   11.26   11.25</time>
   <time name="orth">    0.38    0.38</time>
   <time name="total">   17.46   17.46</time>
   <energy>
    <i name="e_fr_energy">    -13.26525597 </i>
    <i name="e_wo_entrp">    -13.26525843 </i>
    <i name="e_0_energy">    -13.26525679 </i>
   </energy>
  </scstep>
  <scstep>
   <time name="diag">    4.15    4.14</time>
   <time name="diis">   11.44   11.44</time>
   <time name="orth">    0.37    0.37</time>
   <time name="total">   17.54   17.53</time>
   <energy>
    <i name="e_fr_energy">    -13.26306522 </i>
    <i name="e_wo_entrp">    -13.26305823 </i>
    <i name="e_0_energy">    -13.26306289 </i>
   </energy>
  </scstep>
  <scstep>
   <time name="diag">    4.10    4.10</time>
   <time name="diis">   10.91   10.91</time>
   <time name="orth">    0.43    0.43</time>
   <time name="total">   17.02   17.02</time>
   <energy>
    <i name="e_fr_energy">    -13.27466157 </i>
    <i name="e_wo_entrp">    -13.27464464 </i>
    <i name="e_0_energy">    -13.27465593 </i>
   </energy>
  </scstep>
  <scstep>
   <time name="diag">    4.31    4.30</time>
   <time name="diis">   12.21   12.21</time>
   <time name="orth">    0.43    0.43</time>
   <time name="total">   18.52   18.52</time>
   <energy>
    <i name="e_fr_energy">    -13.28041552 </i>
    <i name="e_wo_entrp">    -13.28039535 </i>
    <i name="e_0_energy">    -13.28040880 </i>
   </energy>
  </scstep>
  <scstep>
   <time name="diag">    4.33    4.33</time>
   <time name="diis">   13.09   13.09</time>
   <time name="orth">    0.45    0.45</time>
   <time name="total">   19.42   19.42</time>
   <energy>
    <i name="e_fr_energy">    -13.28183582 </i>
    <i name="e_wo_entrp">    -13.28181330 </i>
    <i name="e_0_energy">    -13.28182832 </i>
   </energy>
  </scstep>
  <scstep>
   <time name="diag">    4.23    4.23</time>
   <time name="diis">   13.31   13.30</time>
   <time name="orth">    0.39    0.39</time>
   <time name="total">   19.47   19.46</time>
   <energy>
    <i name="e_fr_energy">    -13.28191036 </i>
    <i name="e_wo_entrp">    -13.28188744 </i>
    <i name="e_0_energy">    -13.28190272 </i>
   </energy>
  </scstep>
  <scstep>
   <time name="diag">    4.28    4.28</time>
   <time name="diis">   12.54   12.54</time>
   <time name="orth">    0.41    0.41</time>
   <time name="total">   18.77   18.76</time>
   <energy>
    <i name="e_fr_energy">    -13.28196810 </i>
    <i name="e_wo_entrp">    -13.28194491 </i>
    <i name="e_0_energy">    -13.28196037 </i>
   </energy>
  </scstep>
  <scstep>
   <time name="diag">    4.28    4.28</time>
   <time name="diis">   12.16   12.16</time>
   <time name="orth">    0.44    0.44</time>
   <time name="total">   18.41   18.41</time>
   <energy>
    <i name="e_fr_energy">    -13.28197875 </i>
    <i name="e_wo_entrp">    -13.28195556 </i>
    <i name="e_0_energy">    -13.28197102 </i>
   </energy>
  </scstep>
  <scstep>
   <time name="diag">    4.19    4.19</time>
   <time name="diis">   11.20   11.20</time>
   <time name="orth">    0.37    0.37</time>
   <time name="total">   17.30   17.29</time>
   <energy>
    <i name="e_fr_energy">    -13.28198109 </i>
    <i name="e_wo_entrp">    -13.28195790 </i>
    <i name="e_0_energy">    -13.28197336 </i>
   </energy>
  </scstep>
  <scstep>
   <time name="diag">    4.05    4.05</time>
   <time name="diis">   12.10   12.10</time>
   <time name="orth">    0.44    0.44</time>
   <time name="total">   18.12   18.12</time>
   <energy>
    <i name="e_fr_energy">    -13.28198158 </i>
    <i name="e_wo_entrp">    -13.28195839 </i>
    <i name="e_0_energy">    -13.28197385 </i>
   </energy>
  </scstep>
  <scstep>
   <time name="diag">    4.27    4.26</time>
   <time name="diis">   12.59   12.58</time>
   <time name="orth">    0.47    0.47</time>
   <time name="total">   18.87   18.87</time>
   <energy>
    <i name="e_fr_energy">    -13.28198104 </i>
    <i name="e_wo_entrp">    -13.28195785 </i>
    <i name="e_0_energy">    -13.28197331 </i>
   </energy>
  </scstep>
  <scstep>
   <time name="diag">    4.17    4.17</time>
   <time name="diis">   11.40   11.40</time>
   <time name="orth">    0.39    0.39</time>
   <time name="total">   17.62   17.62</time>
   <energy>
    <i name="e_fr_energy">    -13.28198100 </i>
    <i name="e_wo_entrp">    -13.28195780 </i>
    <i name="e_0_energy">    -13.28197327 </i>
   </energy>
  </scstep>
  <scstep>
   <time name="diag">    4.27    4.26</time>
   <time name="diis">    9.79    9.79</time>
   <time name="orth">    0.38    0.38</time>
   <time name="total">   16.00   15.99</time>
   <energy>
    <i name="e_fr_energy">    -13.28198115 </i>
    <i name="e_wo_entrp">    -13.28195796 </i>
    <i name="e_0_energy">    -13.28197342 </i>
   </energy>
  </scstep>
  <scstep>
   <time name="diag">    4.43    4.43</time>
   <time name="diis">    8.99    8.99</time>
   <time name="orth">    0.37    0.37</time>
   <time name="total">   15.41   15.40</time>
   <energy>
    <i name="e_fr_energy">    -13.28198124 </i>
    <i name="e_wo_entrp">    -13.28195805 </i>
    <i name="e_0_energy">    -13.28197351 </i>
   </energy>
  </scstep>
  <scstep>
   <time name="diag">    4.18    4.18</time>
   <time name="diis">    7.92    7.92</time>
   <time name="orth">    0.40    0.40</time>
   <time name="total">   12.69   12.69</time>
   <energy>
    <i name="alphaZ">     65.65019596 </i>
    <i name="ewald">  -1739.46137932 </i>
    <i name="hartreedc">   -673.95779212 </i>
    <i name="XCdc">    -68.79496674 </i>
    <i name="pawpsdc">   2321.04835690 </i>
    <i name="pawaedc">  -2245.63214468 </i>
    <i name="eentropy">     -0.00002319 </i>
    <i name="bandstr">   -312.66295510 </i>
    <i name="atom">   2640.52872706 </i>
    <i name="e_fr_energy">    -13.28198124 </i>
    <i name="e_wo_entrp">    -13.28195805 </i>
    <i name="e_0_energy">    -13.28197351 </i>
   </energy>
  </scstep>
  <structure>
   <crystal>
    <varray name="basis" >
     <v>       4.34778014       0.00000000       0.00000000 </v>
     <v>       2.17389007       3.76528805      -0.00000000 </v>
     <v>       2.17389007       1.25509602       3.54994762 </v>
    </varray>
    <i name="volume">     58.11493087 </i>
    <varray name="rec_basis" >
     <v>       0.23000243      -0.13279197      -0.09389810 </v>
     <v>       0.00000000       0.26558393      -0.09389810 </v>
     <v>      -0.00000000       0.00000000       0.28169430 </v>
    </varray>
   </crystal>
   <varray name="positions" >
    <v>       0.00000000       0.00000000       0.00000000 </v>
   </varray>
  </structure>
  <varray name="forces" >
   <v>       0.00000000       0.00000000       0.00000000 </v>
  </varray>
  <varray name="stress" >
   <v>      -0.13991230       0.00005614       0.00003811 </v>
   <v>       0.00005242      -0.13995131       0.00003335 </v>
   <v>       0.00004110       0.00004143      -0.14002828 </v>
  </varray>
  <energy>
   <i name="e_fr_energy">    -13.72025975 </i>
   <i name="e_wo_entrp">    -13.72025201 </i>
   <i name="e_0_energy">     -0.00002319 </i>
  </energy>
  <kpoints>
   <generation param="Gamma">
    <v type="int" name="divisions">       9        9        9 </v>
    <v name="usershift">      0.00000000       0.00000000       0.00000000 </v>
    <v name="genvec1">      0.11111111       0.00000000      -0.00000000 </v>
    <v name="genvec2">      0.00000000       0.11111111       0.00000000 </v>
    <v name="genvec3">      0.00000000      -0.00000000       0.11111111 </v>
    <v name="shift">      0.00000000       0.00000000       0.00000000 </v>
   </generation>
   <varray name="kpointlist" >
    <v>       0.00000000       0.00000000       0.00000000 </v>
    <v>       0.11111111       0.00000000      -0.00000000 </v>
    <v>       0.22222222       0.00000000      -0.00000000 </v>
    <v>       0.33333333      -0.00000000      -0.00000000 </v>
    <v>       0.44444444       0.00000000      -0.00000000 </v>
    <v>      -0.00000000       0.11111111      -0.00000000 </v>
    <v>       0.11111111       0.11111111      -0.00000000 </v>
    <v>       0.22222222       0.11111111      -0.00000000 </v>
    <v>       0.33333333       0.11111111      -0.00000000 </v>
    <v>       0.44444444       0.11111111      -0.00000000 </v>
    <v>      -0.44444444       0.11111111       0.00000000 </v>
    <v>      -0.33333333       0.11111111       0.00000000 </v>
    <v>      -0.22222222       0.11111111       0.00000000 </v>
    <v>      -0.11111111       0.11111111       0.00000000 </v>
    <v>       0.00000000       0.22222222      -0.00000000 </v>
    <v>       0.11111111       0.22222222      -0.00000000 </v>
    <v>       0.22222222       0.22222222      -0.00000000 </v>
    <v>       0.33333333       0.22222222      -0.00000000 </v>
    <v>       0.44444444       0.22222222      -0.00000000 </v>
    <v>      -0.44444444       0.22222222       0.00000000 </v>
    <v>      -0.33333333       0.22222222       0.00000000 </v>
    <v>      -0.22222222       0.22222222       0.00000000 </v>
    <v>      -0.11111111       0.22222222      -0.00000000 </v>
    <v>      -0.00000000       0.33333333      -0.00000000 </v>
    <v>       0.11111111       0.33333333      -0.00000000 </v>
    <v>       0.22222222       0.33333333      -0.00000000 </v>
    <v>       0.33333333       0.33333333      -0.00000000 </v>
    <v>       0.44444444       0.33333333       0.00000000 </v>
    <v>      -0.44444444       0.33333333       0.00000000 </v>
    <v>      -0.33333333       0.33333333      -0.00000000 </v>
    <v>      -0.22222222       0.33333333       0.00000000 </v>
    <v>      -0.11111111       0.33333333      -0.00000000 </v>
    <v>       0.00000000       0.44444444      -0.00000000 </v>
    <v>       0.11111111       0.44444444      -0.00000000 </v>
    <v>       0.22222222       0.44444444      -0.00000000 </v>
    <v>       0.33333333       0.44444444      -0.00000000 </v>
    <v>       0.44444444       0.44444444      -0.00000000 </v>
    <v>      -0.44444444       0.44444444       0.00000000 </v>
    <v>      -0.33333333       0.44444444      -0.00000000 </v>
    <v>      -0.22222222       0.44444444      -0.00000000 </v>
    <v>      -0.11111111       0.44444444      -0.00000000 </v>
    <v>      -0.00000000       0.00000000       0.11111111 </v>
    <v>       0.11111111       0.00000000       0.11111111 </v>
    <v>       0.22222222       0.00000000       0.11111111 </v>
    <v>       0.33333333      -0.00000000       0.11111111 </v>
    <v>       0.44444444       0.00000000       0.11111111 </v>
    <v>      -0.44444444      -0.00000000       0.11111111 </v>
    <v>      -0.33333333       0.00000000       0.11111111 </v>
    <v>      -0.22222222      -0.00000000       0.11111111 </v>
    <v>      -0.11111111      -0.00000000       0.11111111 </v>
    <v>       0.00000000       0.11111111       0.11111111 </v>
    <v>       0.11111111       0.11111111       0.11111111 </v>
    <v>       0.22222222       0.11111111       0.11111111 </v>
    <v>       0.33333333       0.11111111       0.11111111 </v>
    <v>       0.44444444       0.11111111       0.11111111 </v>
    <v>      -0.44444444       0.11111111       0.11111111 </v>
    <v>      -0.33333333       0.11111111       0.11111111 </v>
    <v>      -0.22222222       0.11111111       0.11111111 </v>
    <v>      -0.11111111       0.11111111       0.11111111 </v>
    <v>       0.00000000       0.22222222       0.11111111 </v>
    <v>       0.11111111       0.22222222       0.11111111 </v>
    <v>       0.22222222       0.22222222       0.11111111 </v>
    <v>       0.33333333       0.22222222       0.11111111 </v>
    <v>       0.44444444       0.22222222       0.11111111 </v>
    <v>      -0.44444444       0.22222222       0.11111111 </v>
    <v>      -0.33333333       0.22222222       0.11111111 </v>
    <v>      -0.22222222       0.22222222       0.11111111 </v>
    <v>      -0.11111111       0.22222222       0.11111111 </v>
    <v>      -0.00000000       0.33333333       0.11111111 </v>
    <v>       0.11111111       0.33333333       0.11111111 </v>
    <v>       0.22222222       0.33333333       0.11111111 </v>
    <v>       0.33333333       0.33333333       0.11111111 </v>
    <v>       0.44444444       0.33333333       0.11111111 </v>
    <v>      -0.44444444       0.33333333       0.11111111 </v>
    <v>      -0.33333333       0.33333333       0.11111111 </v>
    <v>      -0.22222222       0.33333333       0.11111111 </v>
    <v>      -0.11111111       0.33333333       0.11111111 </v>
    <v>      -0.00000000       0.44444444       0.11111111 </v>
    <v>       0.11111111       0.44444444       0.11111111 </v>
    <v>       0.22222222       0.44444444       0.11111111 </v>
    <v>       0.33333333       0.44444444       0.11111111 </v>
    <v>       0.44444444       0.44444444       0.11111111 </v>
    <v>      -0.44444444       0.44444444       0.11111111 </v>
    <v>      -0.33333333       0.44444444       0.11111111 </v>
    <v>      -0.22222222       0.44444444       0.11111111 </v>
    <v>      -0.11111111       0.44444444       0.11111111 </v>
    <v>       0.00000000      -0.44444444       0.11111111 </v>
    <v>       0.11111111      -0.44444444       0.11111111 </v>
    <v>       0.22222222      -0.44444444       0.11111111 </v>
    <v>       0.33333333      -0.44444444       0.11111111 </v>
    <v>       0.44444444      -0.44444444       0.11111111 </v>
    <v>      -0.44444444      -0.44444444       0.11111111 </v>
    <v>      -0.33333333      -0.44444444       0.11111111 </v>
    <v>      -0.22222222      -0.44444444       0.11111111 </v>
    <v>      -0.11111111      -0.44444444       0.11111111 </v>
    <v>       0.00000000      -0.33333333       0.11111111 </v>
    <v>       0.11111111      -0.33333333       0.11111111 </v>
    <v>       0.22222222      -0.33333333       0.11111111 </v>
    <v>       0.33333333      -0.33333333       0.11111111 </v>
    <v>       0.44444444      -0.33333333       0.11111111 </v>
    <v>      -0.44444444      -0.33333333       0.11111111 </v>
    <v>      -0.33333333      -0.33333333       0.11111111 </v>
    <v>      -0.22222222      -0.33333333       0.11111111 </v>
    <v>      -0.11111111      -0.33333333       0.11111111 </v>
    <v>       0.00000000      -0.22222222       0.11111111 </v>
    <v>       0.11111111      -0.22222222       0.11111111 </v>
    <v>       0.22222222      -0.22222222       0.11111111 </v>
    <v>       0.33333333      -0.22222222       0.11111111 </v>
    <v>       0.44444444      -0.22222222       0.11111111 </v>
    <v>      -0.44444444      -0.22222222       0.11111111 </v>
    <v>      -0.33333333      -0.22222222       0.11111111 </v>
    <v>      -0.22222222      -0.22222222       0.11111111 </v>
    <v>      -0.11111111      -0.22222222       0.11111111 </v>
    <v>       0.00000000      -0.11111111       0.11111111 </v>
    <v>       0.11111111      -0.11111111       0.11111111 </v>
    <v>       0.22222222      -0.11111111       0.11111111 </v>
    <v>       0.33333333      -0.11111111       0.11111111 </v>
    <v>       0.44444444      -0.11111111       0.11111111 </v>
    <v>      -0.44444444      -0.11111111       0.11111111 </v>
    <v>      -0.33333333      -0.11111111       0.11111111 </v>
    <v>      -0.22222222      -0.11111111       0.11111111 </v>
    <v>      -0.11111111      -0.11111111       0.11111111 </v>
    <v>       0.00000000      -0.00000000       0.22222222 </v>
    <v>       0.11111111       0.00000000       0.22222222 </v>
    <v>       0.22222222       0.00000000       0.22222222 </v>
    <v>       0.33333333      -0.00000000       0.22222222 </v>
    <v>       0.44444444       0.00000000       0.22222222 </v>
    <v>      -0.44444444      -0.00000000       0.22222222 </v>
    <v>      -0.33333333       0.00000000       0.22222222 </v>
    <v>      -0.22222222      -0.00000000       0.22222222 </v>
    <v>      -0.11111111      -0.00000000       0.22222222 </v>
    <v>       0.00000000       0.11111111       0.22222222 </v>
    <v>       0.11111111       0.11111111       0.22222222 </v>
    <v>       0.22222222       0.11111111       0.22222222 </v>
    <v>       0.33333333       0.11111111       0.22222222 </v>
    <v>       0.44444444       0.11111111       0.22222222 </v>
    <v>      -0.44444444       0.11111111       0.22222222 </v>
    <v>      -0.33333333       0.11111111       0.22222222 </v>
    <v>      -0.22222222       0.11111111       0.22222222 </v>
    <v>      -0.11111111       0.11111111       0.22222222 </v>
    <v>       0.00000000       0.22222222       0.22222222 </v>
    <v>       0.11111111       0.22222222       0.22222222 </v>
    <v>       0.22222222       0.22222222       0.22222222 </v>
    <v>       0.33333333       0.22222222       0.22222222 </v>
    <v>       0.44444444       0.22222222       0.22222222 </v>
    <v>      -0.44444444       0.22222222       0.22222222 </v>
    <v>      -0.33333333       0.22222222       0.22222222 </v>
    <v>      -0.22222222       0.22222222       0.22222222 </v>
    <v>      -0.11111111       0.22222222       0.22222222 </v>
    <v>       0.00000000       0.33333333       0.22222222 </v>
    <v>       0.11111111       0.33333333       0.22222222 </v>
    <v>       0.22222222       0.33333333       0.22222222 </v>
    <v>       0.33333333       0.33333333       0.22222222 </v>
    <v>       0.44444444       0.33333333       0.22222222 </v>
    <v>      -0.44444444       0.33333333       0.22222222 </v>
    <v>      -0.33333333       0.33333333       0.22222222 </v>
    <v>      -0.22222222       0.33333333       0.22222222 </v>
    <v>      -0.11111111       0.33333333       0.22222222 </v>
    <v>       0.00000000       0.44444444       0.22222222 </v>
    <v>       0.11111111       0.44444444       0.22222222 </v>
    <v>       0.22222222       0.44444444       0.22222222 </v>
    <v>       0.33333333       0.44444444       0.22222222 </v>
    <v>       0.44444444       0.44444444       0.22222222 </v>
    <v>      -0.44444444       0.44444444       0.22222222 </v>
    <v>      -0.33333333       0.44444444       0.22222222 </v>
    <v>      -0.22222222       0.44444444       0.22222222 </v>
    <v>      -0.11111111       0.44444444       0.22222222 </v>
    <v>       0.00000000      -0.44444444       0.22222222 </v>
    <v>       0.11111111      -0.44444444       0.22222222 </v>
    <v>       0.22222222      -0.44444444       0.22222222 </v>
    <v>       0.33333333      -0.44444444       0.22222222 </v>
    <v>       0.44444444      -0.44444444       0.22222222 </v>
    <v>      -0.44444444      -0.44444444       0.22222222 </v>
    <v>      -0.33333333      -0.44444444       0.22222222 </v>
    <v>      -0.22222222      -0.44444444       0.22222222 </v>
    <v>      -0.11111111      -0.44444444       0.22222222 </v>
    <v>       0.00000000      -0.33333333       0.22222222 </v>
    <v>       0.11111111      -0.33333333       0.22222222 </v>
    <v>       0.22222222      -0.33333333       0.22222222 </v>
    <v>       0.33333333      -0.33333333       0.22222222 </v>
    <v>       0.44444444      -0.33333333       0.22222222 </v>
    <v>      -0.44444444      -0.33333333       0.22222222 </v>
    <v>      -0.33333333      -0.33333333       0.22222222 </v>
    <v>      -0.22222222      -0.33333333       0.22222222 </v>
    <v>      -0.11111111      -0.33333333       0.22222222 </v>
    <v>      -0.00000000      -0.22222222       0.22222222 </v>
    <v>       0.11111111      -0.22222222       0.22222222 </v>
    <v>       0.22222222      -0.22222222       0.22222222 </v>
    <v>       0.33333333      -0.22222222       0.22222222 </v>
    <v>       0.44444444      -0.22222222       0.22222222 </v>
    <v>      -0.44444444      -0.22222222       0.22222222 </v>
    <v>      -0.33333333      -0.22222222       0.22222222 </v>
    <v>      -0.22222222      -0.22222222       0.22222222 </v>
    <v>      -0.11111111      -0.22222222       0.22222222 </v>
    <v>       0.00000000      -0.11111111       0.22222222 </v>
    <v>       0.11111111      -0.11111111       0.22222222 </v>
    <v>       0.22222222      -0.11111111       0.22222222 </v>
    <v>       0.33333333      -0.11111111       0.22222222 </v>
    <v>       0.44444444      -0.11111111       0.22222222 </v>
    <v>      -0.44444444      -0.11111111       0.22222222 </v>
    <v>      -0.33333333      -0.11111111       0.22222222 </v>
    <v>      -0.22222222      -0.11111111       0.22222222 </v>
    <v>      -0.11111111      -0.11111111       0.22222222 </v>
    <v>       0.00000000       0.00000000       0.33333333 </v>
    <v>       0.11111111      -0.00000000       0.33333333 </v>
    <v>       0.22222222       0.00000000       0.33333333 </v>
    <v>       0.33333333       0.00000000       0.33333333 </v>
    <v>       0.44444444       0.00000000       0.33333333 </v>
    <v>      -0.44444444      -0.00000000       0.33333333 </v>
    <v>      -0.33333333       0.00000000       0.33333333 </v>
    <v>      -0.22222222      -0.00000000       0.33333333 </v>
    <v>      -0.11111111      -0.00000000       0.33333333 </v>
    <v>       0.00000000       0.11111111       0.33333333 </v>
    <v>       0.11111111       0.11111111       0.33333333 </v>
    <v>       0.22222222       0.11111111       0.33333333 </v>
    <v>       0.33333333       0.11111111       0.33333333 </v>
    <v>       0.44444444       0.11111111       0.33333333 </v>
    <v>      -0.44444444       0.11111111       0.33333333 </v>
    <v>      -0.33333333       0.11111111       0.33333333 </v>
    <v>      -0.22222222       0.11111111       0.33333333 </v>
    <v>      -0.11111111       0.11111111       0.33333333 </v>
    <v>       0.00000000       0.22222222       0.33333333 </v>
    <v>       0.11111111       0.22222222       0.33333333 </v>
    <v>       0.22222222       0.22222222       0.33333333 </v>
    <v>       0.33333333       0.22222222       0.33333333 </v>
    <v>       0.44444444       0.22222222       0.33333333 </v>
    <v>      -0.44444444       0.22222222       0.33333333 </v>
    <v>      -0.33333333       0.22222222       0.33333333 </v>
    <v>      -0.22222222       0.22222222       0.33333333 </v>
    <v>      -0.11111111       0.22222222       0.33333333 </v>
    <v>       0.00000000       0.33333333       0.33333333 </v>
    <v>       0.11111111       0.33333333       0.33333333 </v>
    <v>       0.22222222       0.33333333       0.33333333 </v>
    <v>       0.33333333       0.33333333       0.33333333 </v>
    <v>       0.44444444       0.33333333       0.33333333 </v>
    <v>      -0.44444444       0.33333333       0.33333333 </v>
    <v>      -0.33333333       0.33333333       0.33333333 </v>
    <v>      -0.22222222       0.33333333       0.33333333 </v>
    <v>      -0.11111111       0.33333333       0.33333333 </v>
    <v>       0.00000000       0.44444444       0.33333333 </v>
    <v>       0.11111111       0.44444444       0.33333333 </v>
    <v>       0.22222222       0.44444444       0.33333333 </v>
    <v>       0.33333333       0.44444444       0.33333333 </v>
    <v>       0.44444444       0.44444444       0.33333333 </v>
    <v>      -0.44444444       0.44444444       0.33333333 </v>
    <v>      -0.33333333       0.44444444       0.33333333 </v>
    <v>      -0.22222222       0.44444444       0.33333333 </v>
    <v>      -0.11111111       0.44444444       0.33333333 </v>
    <v>       0.00000000      -0.44444444       0.33333333 </v>
    <v>       0.11111111      -0.44444444       0.33333333 </v>
    <v>       0.22222222      -0.44444444       0.33333333 </v>
    <v>       0.33333333      -0.44444444       0.33333333 </v>
    <v>       0.44444444      -0.44444444       0.33333333 </v>
    <v>      -0.44444444      -0.44444444       0.33333333 </v>
    <v>      -0.33333333      -0.44444444       0.33333333 </v>
    <v>      -0.22222222      -0.44444444       0.33333333 </v>
    <v>      -0.11111111      -0.44444444       0.33333333 </v>
    <v>       0.00000000      -0.33333333       0.33333333 </v>
    <v>       0.11111111      -0.33333333       0.33333333 </v>
    <v>       0.22222222      -0.33333333       0.33333333 </v>
    <v>       0.33333333      -0.33333333       0.33333333 </v>
    <v>       0.44444444      -0.33333333       0.33333333 </v>
    <v>      -0.44444444      -0.33333333       0.33333333 </v>
    <v>      -0.33333333      -0.33333333       0.33333333 </v>
    <v>      -0.22222222      -0.33333333       0.33333333 </v>
    <v>      -0.11111111      -0.33333333       0.33333333 </v>
    <v>       0.00000000      -0.22222222       0.33333333 </v>
    <v>       0.11111111      -0.22222222       0.33333333 </v>
    <v>       0.22222222      -0.22222222       0.33333333 </v>
    <v>       0.33333333      -0.22222222       0.33333333 </v>
    <v>       0.44444444      -0.22222222       0.33333333 </v>
    <v>      -0.44444444      -0.22222222       0.33333333 </v>
    <v>      -0.33333333      -0.22222222       0.33333333 </v>
    <v>      -0.22222222      -0.22222222       0.33333333 </v>
    <v>      -0.11111111      -0.22222222       0.33333333 </v>
    <v>       0.00000000      -0.11111111       0.33333333 </v>
    <v>       0.11111111      -0.11111111       0.33333333 </v>
    <v>       0.22222222      -0.11111111       0.33333333 </v>
    <v>       0.33333333      -0.11111111       0.33333333 </v>
    <v>       0.44444444      -0.11111111       0.33333333 </v>
    <v>      -0.44444444      -0.11111111       0.33333333 </v>
    <v>      -0.33333333      -0.11111111       0.33333333 </v>
    <v>      -0.22222222      -0.11111111       0.33333333 </v>
    <v>      -0.11111111      -0.11111111       0.33333333 </v>
    <v>       0.00000000      -0.00000000       0.44444444 </v>
    <v>       0.11111111       0.00000000       0.44444444 </v>
    <v>       0.22222222       0.00000000       0.44444444 </v>
    <v>       0.33333333       0.00000000       0.44444444 </v>
    <v>       0.44444444       0.00000000       0.44444444 </v>
    <v>      -0.44444444      -0.00000000       0.44444444 </v>
    <v>      -0.33333333       0.00000000       0.44444444 </v>
    <v>      -0.22222222      -0.00000000       0.44444444 </v>
    <v>      -0.11111111      -0.00000000       0.44444444 </v>
    <v>       0.00000000       0.11111111       0.44444444 </v>
    <v>       0.11111111       0.11111111       0.44444444 </v>
    <v>       0.22222222       0.11111111       0.44444444 </v>
    <v>       0.33333333       0.11111111       0.44444444 </v>
    <v>       0.44444444       0.11111111       0.44444444 </v>
    <v>      -0.44444444       0.11111111       0.44444444 </v>
    <v>      -0.33333333       0.11111111       0.44444444 </v>
    <v>      -0.22222222       0.11111111       0.44444444 </v>
    <v>      -0.11111111       0.11111111       0.44444444 </v>
    <v>       0.00000000       0.22222222       0.44444444 </v>
    <v>       0.11111111       0.22222222       0.44444444 </v>
    <v>       0.22222222       0.22222222       0.44444444 </v>
    <v>       0.33333333       0.22222222       0.44444444 </v>
    <v>       0.44444444       0.22222222       0.44444444 </v>
    <v>      -0.44444444       0.22222222       0.44444444 </v>
    <v>      -0.33333333       0.22222222       0.44444444 </v>
    <v>      -0.22222222       0.22222222       0.44444444 </v>
[...]
       <r>     3.8084     0.0000     0.0000 </r>
       <r>     3.9823     0.0000     0.0000 </r>
       <r>     4.1563     0.0000     0.0000 </r>
       <r>     4.3302     0.0000     0.0000 </r>
       <r>     4.5041     0.0000     0.0000 </r>
       <r>     4.6781     0.0000     0.0000 </r>
       <r>     4.8520     0.0000     0.0000 </r>
       <r>     5.0259     0.0000     0.0000 </r>
       <r>     5.1999     0.0000     0.0000 </r>
       <r>     5.3738     0.0000     0.0000 </r>
       <r>     5.5477     0.0000     0.0000 </r>
       <r>     5.7216     0.0000     0.0000 </r>
       <r>     5.8956     0.0000     0.0000 </r>
       <r>     6.0695     0.0000     0.0000 </r>
       <r>     6.2434     0.0000     0.0000 </r>
       <r>     6.4174     0.0000     0.0000 </r>
       <r>     6.5913     0.0000     0.0000 </r>
       <r>     6.7652     0.0000     0.0000 </r>
       <r>     6.9392     0.0000     0.0000 </r>
       <r>     7.1131     0.0000     0.0000 </r>
       <r>     7.2870     0.0000     0.0000 </r>
       <r>     7.4610     0.0000     0.0000 </r>
       <r>     7.6349     0.0000     0.0000 </r>
       <r>     7.8088     0.0000     0.0000 </r>
       <r>     7.9828     0.0000     0.0000 </r>
       <r>     8.1567     0.0000     0.0000 </r>
       <r>     8.3306     0.0000     0.0000 </r>
       <r>     8.5046     0.0000     0.0000 </r>
       <r>     8.6785     0.0000     0.0000 </r>
       <r>     8.8524     0.0000     0.0000 </r>
       <r>     9.0263     0.0000     0.0000 </r>
       <r>     9.2003     0.0000     0.0000 </r>
       <r>     9.3742     0.0000     0.0000 </r>
       <r>     9.5481     0.0000     0.0000 </r>
       <r>     9.7221     0.0000     0.0000 </r>
       <r>     9.8960     0.0000     0.0000 </r>
       <r>    10.0699     0.0000     0.0000 </r>
       <r>    10.2439     0.0000     0.0000 </r>
       <r>    10.4178     0.0000     0.0000 </r>
       <r>    10.5917     0.0000     0.0000 </r>
       <r>    10.7657     0.0000     0.0000 </r>
       <r>    10.9396     0.0000     0.0000 </r>
       <r>    11.1135     0.0000     0.0000 </r>
       <r>    11.2875     0.0000     0.0000 </r>
       <r>    11.4614     0.0000     0.0000 </r>
       <r>    11.6353     0.0000     0.0000 </r>
       <r>    11.8093     0.0000     0.0000 </r>
       <r>    11.9832     0.0000     0.0000 </r>
       <r>    12.1571     0.0000     0.0000 </r>
       <r>    12.3311     0.0000     0.0000 </r>
       <r>    12.5050     0.0000     0.0000 </r>
       <r>    12.6789     0.0000     0.0000 </r>
       <r>    12.8528     0.0000     0.0000 </r>
       <r>    13.0268     0.0000     0.0000 </r>
       <r>    13.2007     0.0000     0.0000 </r>
       <r>    13.3746     0.0000     0.0000 </r>
       <r>    13.5486     0.0000     0.0000 </r>
       <r>    13.7225     0.0000     0.0000 </r>
       <r>    13.8964     0.0000     0.0000 </r>
       <r>    14.0704     0.0000     0.0000 </r>
       <r>    14.2443     0.0000     0.0000 </r>
       <r>    14.4182     0.0000     0.0000 </r>
       <r>    14.5922     0.0000     0.0000 </r>
       <r>    14.7661     0.0000     0.0000 </r>
       <r>    14.9400     0.0000     0.0000 </r>
       <r>    15.1140     0.0000     0.0000 </r>
       <r>    15.2879     0.0000     0.0000 </r>
       <r>    15.4618     0.0000     0.0000 </r>
       <r>    15.6358     0.0000     0.0000 </r>
       <r>    15.8097     0.0000     0.0000 </r>
       <r>    15.9836     0.0000     0.0000 </r>
       <r>    16.1575     0.0000     0.0000 </r>
       <r>    16.3315     0.0000     0.0000 </r>
       <r>    16.5054     0.0000     0.0000 </r>
       <r>    16.6793     0.0000     0.0000 </r>
       <r>    16.8533     0.0000     0.0000 </r>
       <r>    17.0272     0.0000     0.0000 </r>
       <r>    17.2011     0.0000     0.0000 </r>
       <r>    17.3751     0.0000     0.0000 </r>
       <r>    17.5490     0.0000     0.0000 </r>
       <r>    17.7229     0.0000     0.0000 </r>
       <r>    17.8969     0.0000     0.0000 </r>
       <r>    18.0708     0.0000     0.0000 </r>
       <r>    18.2447     0.0000     0.0000 </r>
       <r>    18.4187     0.0000     0.0000 </r>
       <r>    18.5926     0.0000     0.0000 </r>
       <r>    18.7665     0.0000     0.0000 </r>
       <r>    18.9405     0.0000     0.0000 </r>
       <r>    19.1144     0.0000     0.0000 </r>
       <r>    19.2883     0.0000     0.0000 </r>
      </set>
      <set comment="spin 4">
       <r>   -32.8912     0.0000     0.0000 </r>
       <r>   -32.7173     0.0000     0.0000 </r>
       <r>   -32.5433     0.0000     0.0000 </r>
       <r>   -32.3694     0.0000     0.0000 </r>
       <r>   -32.1955     0.0000     0.0000 </r>
       <r>   -32.0215     0.0000     0.0000 </r>
       <r>   -31.8476     0.0000     0.0000 </r>
       <r>   -31.6737     0.0000     0.0000 </r>
       <r>   -31.4997     0.0000     0.0000 </r>
       <r>   -31.3258     0.0000     0.0000 </r>
       <r>   -31.1519     0.0000     0.0000 </r>
       <r>   -30.9779     0.0000     0.0000 </r>
       <r>   -30.8040     0.0000     0.0000 </r>
       <r>   -30.6301     0.0000     0.0000 </r>
       <r>   -30.4562     0.0000     0.0000 </r>
       <r>   -30.2822     0.0000     0.0000 </r>
       <r>   -30.1083     0.0000     0.0000 </r>
       <r>   -29.9344     0.0000     0.0000 </r>
       <r>   -29.7604     0.0000     0.0000 </r>
       <r>   -29.5865     0.0000     0.0000 </r>
       <r>   -29.4126     0.0000     0.0000 </r>
       <r>   -29.2386     0.0000     0.0000 </r>
       <r>   -29.0647     0.0000     0.0000 </r>
       <r>   -28.8908     0.0000     0.0000 </r>
       <r>   -28.7168     0.0000     0.0000 </r>
       <r>   -28.5429     0.0000     0.0000 </r>
       <r>   -28.3690     0.0000     0.0000 </r>
       <r>   -28.1950     0.0000     0.0000 </r>
       <r>   -28.0211     0.0000     0.0000 </r>
       <r>   -27.8472     0.0000     0.0000 </r>
       <r>   -27.6732     0.0000     0.0000 </r>
       <r>   -27.4993     0.0000     0.0000 </r>
       <r>   -27.3254     0.0000     0.0000 </r>
       <r>   -27.1515     0.0000     0.0000 </r>
       <r>   -26.9775     0.0000     0.0000 </r>
       <r>   -26.8036     0.0000     0.0000 </r>
       <r>   -26.6297     0.0000     0.0000 </r>
       <r>   -26.4557     0.0000     0.0000 </r>
       <r>   -26.2818     0.0000     0.0000 </r>
       <r>   -26.1079     0.0000     0.0000 </r>
       <r>   -25.9339     0.0000     0.0000 </r>
       <r>   -25.7600     0.0000     0.0000 </r>
       <r>   -25.5861     0.0000     0.0000 </r>
       <r>   -25.4121     0.0000     0.0000 </r>
       <r>   -25.2382     0.0000     0.0000 </r>
       <r>   -25.0643     0.0000     0.0000 </r>
       <r>   -24.8903     0.0000     0.0000 </r>
       <r>   -24.7164     0.0000     0.0000 </r>
       <r>   -24.5425     0.0000     0.0000 </r>
       <r>   -24.3685     0.0000     0.0000 </r>
       <r>   -24.1946     0.0000     0.0000 </r>
       <r>   -24.0207     0.0000     0.0000 </r>
       <r>   -23.8467     0.0000     0.0000 </r>
       <r>   -23.6728     0.0000     0.0000 </r>
       <r>   -23.4989     0.0000     0.0000 </r>
       <r>   -23.3250     0.0000     0.0000 </r>
       <r>   -23.1510     0.0000     0.0000 </r>
       <r>   -22.9771     0.0000     0.0000 </r>
       <r>   -22.8032     0.0000     0.0000 </r>
       <r>   -22.6292     0.0000     0.0000 </r>
       <r>   -22.4553     0.0000     0.0000 </r>
       <r>   -22.2814     0.0000     0.0000 </r>
       <r>   -22.1074     0.0000     0.0000 </r>
       <r>   -21.9335     0.0000     0.0000 </r>
       <r>   -21.7596     0.0000     0.0000 </r>
       <r>   -21.5856     0.0000     0.0000 </r>
       <r>   -21.4117     0.0000     0.0000 </r>
       <r>   -21.2378     0.0000     0.0000 </r>
       <r>   -21.0638     0.0000     0.0000 </r>
       <r>   -20.8899     0.0000     0.0000 </r>
       <r>   -20.7160     0.0000     0.0000 </r>
       <r>   -20.5420     0.0000     0.0000 </r>
       <r>   -20.3681     0.0000     0.0000 </r>
       <r>   -20.1942     0.0000     0.0000 </r>
       <r>   -20.0202     0.0000     0.0000 </r>
       <r>   -19.8463     0.0000     0.0000 </r>
       <r>   -19.6724     0.0000     0.0000 </r>
       <r>   -19.4985     0.0000     0.0000 </r>
       <r>   -19.3245     0.0000     0.0000 </r>
       <r>   -19.1506     0.0000     0.0000 </r>
       <r>   -18.9767     0.0000     0.0000 </r>
       <r>   -18.8027     0.0000     0.0000 </r>
       <r>   -18.6288     0.0000     0.0000 </r>
       <r>   -18.4549     0.0000     0.0000 </r>
       <r>   -18.2809     0.0000     0.0000 </r>
       <r>   -18.1070     0.0000     0.0000 </r>
       <r>   -17.9331     0.0000     0.0000 </r>
       <r>   -17.7591     0.0000     0.0000 </r>
       <r>   -17.5852     0.0000     0.0000 </r>
       <r>   -17.4113     0.0000     0.0000 </r>
       <r>   -17.2373     0.0000     0.0000 </r>
       <r>   -17.0634     0.0000     0.0000 </r>
       <r>   -16.8895     0.0000     0.0000 </r>
       <r>   -16.7155     0.0000     0.0000 </r>
       <r>   -16.5416     0.0000     0.0000 </r>
       <r>   -16.3677     0.0000     0.0000 </r>
       <r>   -16.1938     0.0000     0.0000 </r>
       <r>   -16.0198     0.0000     0.0000 </r>
       <r>   -15.8459     0.0000     0.0000 </r>
       <r>   -15.6720     0.0000     0.0000 </r>
       <r>   -15.4980     0.0000     0.0000 </r>
       <r>   -15.3241     0.0000     0.0000 </r>
       <r>   -15.1502     0.0000     0.0000 </r>
       <r>   -14.9762     0.0000     0.0000 </r>
       <r>   -14.8023     0.0000     0.0000 </r>
       <r>   -14.6284     0.0000     0.0000 </r>
       <r>   -14.4544     0.0000     0.0000 </r>
       <r>   -14.2805     0.0000     0.0000 </r>
       <r>   -14.1066     0.0000     0.0000 </r>
       <r>   -13.9326     0.0000     0.0000 </r>
       <r>   -13.7587     0.0000     0.0000 </r>
       <r>   -13.5848     0.0000     0.0000 </r>
       <r>   -13.4108     0.0000     0.0000 </r>
       <r>   -13.2369     0.0000     0.0000 </r>
       <r>   -13.0630     0.0000     0.0000 </r>
       <r>   -12.8890     0.0000     0.0000 </r>
       <r>   -12.7151     0.0000     0.0000 </r>
       <r>   -12.5412     0.0000     0.0000 </r>
       <r>   -12.3673     0.0000     0.0000 </r>
       <r>   -12.1933     0.0000     0.0000 </r>
       <r>   -12.0194     0.0000     0.0000 </r>
       <r>   -11.8455     0.0000     0.0000 </r>
       <r>   -11.6715     0.0000     0.0000 </r>
       <r>   -11.4976     0.0000     0.0000 </r>
       <r>   -11.3237     0.0000     0.0000 </r>
       <r>   -11.1497     0.0000     0.0000 </r>
       <r>   -10.9758     0.0000     0.0000 </r>
       <r>   -10.8019     0.0000     0.0000 </r>
       <r>   -10.6279     0.0000     0.0000 </r>
       <r>   -10.4540     0.0000     0.0000 </r>
       <r>   -10.2801     0.0000     0.0000 </r>
       <r>   -10.1061     0.0000     0.0000 </r>
       <r>    -9.9322     0.0000     0.0000 </r>
       <r>    -9.7583     0.0000     0.0000 </r>
       <r>    -9.5843     0.0000     0.0000 </r>
       <r>    -9.4104     0.0000     0.0000 </r>
       <r>    -9.2365     0.0000     0.0000 </r>
       <r>    -9.0626     0.0000     0.0000 </r>
       <r>    -8.8886     0.0000     0.0000 </r>
       <r>    -8.7147     0.0000     0.0000 </r>
       <r>    -8.5408     0.0000     0.0000 </r>
       <r>    -8.3668     0.0000     0.0000 </r>
       <r>    -8.1929     0.0000     0.0000 </r>
       <r>    -8.0190     0.0000     0.0000 </r>
       <r>    -7.8450     0.0000     0.0000 </r>
       <r>    -7.6711     0.0000     0.0000 </r>
       <r>    -7.4972     0.0000     0.0000 </r>
       <r>    -7.3232     0.0000     0.0000 </r>
       <r>    -7.1493     0.0000     0.0000 </r>
       <r>    -6.9754     0.0000     0.0000 </r>
       <r>    -6.8014     0.0000     0.0000 </r>
       <r>    -6.6275     0.0000     0.0000 </r>
       <r>    -6.4536     0.0000     0.0000 </r>
       <r>    -6.2796     0.0000     0.0000 </r>
       <r>    -6.1057     0.0000     0.0000 </r>
       <r>    -5.9318     0.0000     0.0000 </r>
       <r>    -5.7578     0.0000     0.0000 </r>
       <r>    -5.5839     0.0000     0.0000 </r>
       <r>    -5.4100     0.0000     0.0000 </r>
       <r>    -5.2361     0.0000     0.0000 </r>
       <r>    -5.0621     0.0000     0.0000 </r>
       <r>    -4.8882     0.0000     0.0000 </r>
       <r>    -4.7143     0.0000     0.0000 </r>
       <r>    -4.5403     0.0000     0.0000 </r>
       <r>    -4.3664     0.0000     0.0000 </r>
       <r>    -4.1925     0.0000     0.0000 </r>
       <r>    -4.0185     0.0000     0.0000 </r>
       <r>    -3.8446     0.0000     0.0000 </r>
       <r>    -3.6707     0.0000     0.0000 </r>
       <r>    -3.4967     0.0000     0.0000 </r>
       <r>    -3.3228     0.0000     0.0000 </r>
       <r>    -3.1489     0.0000     0.0000 </r>
       <r>    -2.9749     0.0000     0.0000 </r>
       <r>    -2.8010     0.0000     0.0000 </r>
       <r>    -2.6271     0.0000     0.0000 </r>
       <r>    -2.4531     0.0000     0.0000 </r>
       <r>    -2.2792     0.0000     0.0000 </r>
       <r>    -2.1053     0.0000     0.0000 </r>
       <r>    -1.9313     0.0000     0.0000 </r>
       <r>    -1.7574     0.0000     0.0000 </r>
       <r>    -1.5835     0.0000     0.0000 </r>
       <r>    -1.4096     0.0000     0.0000 </r>
       <r>    -1.2356     0.0000     0.0000 </r>
       <r>    -1.0617     0.0000     0.0000 </r>
       <r>    -0.8878     0.0000     0.0000 </r>
       <r>    -0.7138     0.0000     0.0000 </r>
       <r>    -0.5399     0.0000     0.0000 </r>
       <r>    -0.3660     0.0000     0.0000 </r>
       <r>    -0.1920     0.0000     0.0000 </r>
       <r>    -0.0181     0.0000     0.0000 </r>
       <r>     0.1558     0.0000     0.0000 </r>
       <r>     0.3298     0.0000     0.0000 </r>
       <r>     0.5037     0.0000     0.0000 </r>
       <r>     0.6776     0.0000     0.0000 </r>
       <r>     0.8516     0.0000     0.0000 </r>
       <r>     1.0255     0.0000     0.0000 </r>
       <r>     1.1994     0.0000     0.0000 </r>
       <r>     1.3734     0.0000     0.0000 </r>
       <r>     1.5473     0.0000     0.0000 </r>
       <r>     1.7212     0.0000     0.0000 </r>
       <r>     1.8951     0.0000     0.0000 </r>
       <r>     2.0691     0.0000     0.0000 </r>
       <r>     2.2430     0.0000     0.0000 </r>
       <r>     2.4169     0.0000     0.0000 </r>
       <r>     2.5909     0.0000     0.0000 </r>
       <r>     2.7648     0.0000     0.0000 </r>
       <r>     2.9387     0.0000     0.0000 </r>
       <r>     3.1127     0.0000     0.0000 </r>
       <r>     3.2866     0.0000     0.0000 </r>
       <r>     3.4605     0.0000     0.0000 </r>
       <r>     3.6345     0.0000     0.0000 </r>
       <r>     3.8084     0.0000     0.0000 </r>
       <r>     3.9823     0.0000     0.0000 </r>
       <r>     4.1563     0.0000     0.0000 </r>
       <r>     4.3302     0.0000     0.0000 </r>
       <r>     4.5041     0.0000     0.0000 </r>
       <r>     4.6781     0.0000     0.0000 </r>
       <r>     4.8520     0.0000     0.0000 </r>
       <r>     5.0259     0.0000     0.0000 </r>
       <r>     5.1999     0.0000     0.0000 </r>
       <r>     5.3738     0.0000     0.0000 </r>
       <r>     5.5477     0.0000     0.0000 </r>
       <r>     5.7216     0.0000     0.0000 </r>
       <r>     5.8956     0.0000     0.0000 </r>
       <r>     6.0695     0.0000     0.0000 </r>
       <r>     6.2434     0.0000     0.0000 </r>
       <r>     6.4174     0.0000     0.0000 </r>
       <r>     6.5913     0.0000     0.0000 </r>
       <r>     6.7652     0.0000     0.0000 </r>
       <r>     6.9392     0.0000     0.0000 </r>
       <r>     7.1131     0.0000     0.0000 </r>
       <r>     7.2870     0.0000     0.0000 </r>
       <r>     7.4610     0.0000     0.0000 </r>
       <r>     7.6349     0.0000     0.0000 </r>
       <r>     7.8088     0.0000     0.0000 </r>
       <r>     7.9828     0.0000     0.0000 </r>
       <r>     8.1567     0.0000     0.0000 </r>
       <r>     8.3306     0.0000     0.0000 </r>
       <r>     8.5046     0.0000     0.0000 </r>
       <r>     8.6785     0.0000     0.0000 </r>
       <r>     8.8524     0.0000     0.0000 </r>
       <r>     9.0263     0.0000     0.0000 </r>
       <r>     9.2003     0.0000     0.0000 </r>
       <r>     9.3742     0.0000     0.0000 </r>
       <r>     9.5481     0.0000     0.0000 </r>
       <r>     9.7221     0.0000     0.0000 </r>
       <r>     9.8960     0.0000     0.0000 </r>
       <r>    10.0699     0.0000     0.0000 </r>
       <r>    10.2439     0.0000     0.0000 </r>
       <r>    10.4178     0.0000     0.0000 </r>
       <r>    10.5917     0.0000     0.0000 </r>
       <r>    10.7657     0.0000     0.0000 </r>
       <r>    10.9396     0.0000     0.0000 </r>
       <r>    11.1135     0.0000     0.0000 </r>
       <r>    11.2875     0.0000     0.0000 </r>
       <r>    11.4614     0.0000     0.0000 </r>
       <r>    11.6353     0.0000     0.0000 </r>
       <r>    11.8093     0.0000     0.0000 </r>
       <r>    11.9832     0.0000     0.0000 </r>
       <r>    12.1571     0.0000     0.0000 </r>
       <r>    12.3311     0.0000     0.0000 </r>
       <r>    12.5050     0.0000     0.0000 </r>
       <r>    12.6789     0.0000     0.0000 </r>
       <r>    12.8528     0.0000     0.0000 </r>
       <r>    13.0268     0.0000     0.0000 </r>
       <r>    13.2007     0.0000     0.0000 </r>
       <r>    13.3746     0.0000     0.0000 </r>
       <r>    13.5486     0.0000     0.0000 </r>
       <r>    13.7225     0.0000     0.0000 </r>
       <r>    13.8964     0.0000     0.0000 </r>
       <r>    14.0704     0.0000     0.0000 </r>
       <r>    14.2443     0.0000     0.0000 </r>
       <r>    14.4182     0.0000     0.0000 </r>
       <r>    14.5922     0.0000     0.0000 </r>
       <r>    14.7661     0.0000     0.0000 </r>
       <r>    14.9400     0.0000     0.0000 </r>
       <r>    15.1140     0.0000     0.0000 </r>
       <r>    15.2879     0.0000     0.0000 </r>
       <r>    15.4618     0.0000     0.0000 </r>
       <r>    15.6358     0.0000     0.0000 </r>
       <r>    15.8097     0.0000     0.0000 </r>
       <r>    15.9836     0.0000     0.0000 </r>
       <r>    16.1575     0.0000     0.0000 </r>
       <r>    16.3315     0.0000     0.0000 </r>
       <r>    16.5054     0.0000     0.0000 </r>
       <r>    16.6793     0.0000     0.0000 </r>
       <r>    16.8533     0.0000     0.0000 </r>
       <r>    17.0272     0.0000     0.0000 </r>
       <r>    17.2011     0.0000     0.0000 </r>
       <r>    17.3751     0.0000     0.0000 </r>
       <r>    17.5490     0.0000     0.0000 </r>
       <r>    17.7229     0.0000     0.0000 </r>
       <r>    17.8969     0.0000     0.0000 </r>
       <r>    18.0708     0.0000     0.0000 </r>
       <r>    18.2447     0.0000     0.0000 </r>
       <r>    18.4187     0.0000     0.0000 </r>
       <r>    18.5926     0.0000     0.0000 </r>
       <r>    18.7665     0.0000     0.0000 </r>
       <r>    18.9405     0.0000     0.0000 </r>
       <r>    19.1144     0.0000     0.0000 </r>
       <r>    19.2883     0.0000     0.0000 </r>
      </set>
     </set>
    </array>
   </total>
  </dos>
 </calculation>
 <structure name="finalpos" >
  <crystal>
   <varray name="basis" >
    <v>       4.34778014       0.00000000       0.00000000 </v>
    <v>       2.17389007       3.76528805      -0.00000000 </v>
    <v>       2.17389007       1.25509602       3.54994762 </v>
   </varray>
   <i name="volume">     58.11493087 </i>
   <varray name="rec_basis" >
    <v>       0.23000243      -0.13279197      -0.09389810 </v>
    <v>       0.00000000       0.26558393      -0.09389810 </v>
    <v>      -0.00000000       0.00000000       0.28169430 </v>
   </varray>
  </crystal>
  <varray name="positions" >
   <v>       0.00187796       0.00187796      -0.00563389 </v>
  </varray>
 </structure>
</modeling>
