Og_FCC                                  
           1
     4.347780    0.000000    0.000000
     2.173890    3.765288   -0.000000
     2.173890    1.255096    3.549948
   Og
   1
Direct configuration=     1
   0.00000000  0.00000000  0.00000000
Og_FCC                                  
           1
     4.434736    0.000000    0.000000
     2.217368    3.765288   -0.000000
     2.217368    1.255096    3.549948
   Og
   1
Direct configuration=     2
   0.00000000  0.00000000  0.00000000
Og_FCC                                  
           1
     4.260825    0.000000    0.000000
     2.130412    3.765288   -0.000000
     2.130412    1.255096    3.549948
   Og
   1
Direct configuration=     3
   0.00000000  0.00000000  0.00000000
Og_FCC                                  
           1
     4.347780    0.000000    0.000000
     2.173890    3.840594   -0.000000
     2.173890    1.280198    3.549948
   Og
   1
Direct configuration=     4
   0.00000000  0.00000000  0.00000000
Og_FCC                                  
           1
     4.347780    0.000000    0.000000
     2.173890    3.689982   -0.000000
     2.173890    1.229994    3.549948
   Og
   1
Direct configuration=     5
   0.00000000  0.00000000  0.00000000
Og_FCC                                  
           1
     4.347780    0.000000    0.000000
     2.173890    3.765288   -0.000000
     2.173890    1.255096    3.620947
   Og
   1
Direct configuration=     6
   0.00000000  0.00000000  0.00000000
Og_FCC                                  
           1
     4.347780    0.000000    0.000000
     2.173890    3.765288   -0.000000
     2.173890    1.255096    3.478949
   Og
   1
Direct configuration=     7
   0.00000000  0.00000000  0.00000000
Og_FCC                                  
           1
     4.347780    0.086956    0.000000
     2.173890    3.808766   -0.000000
     2.173890    1.298574    3.549948
   Og
   1
Direct configuration=     8
   0.00000000  0.00000000  0.00000000
Og_FCC                                  
           1
     4.347780   -0.086956    0.000000
     2.173890    3.721810   -0.000000
     2.173890    1.211618    3.549948
   Og
   1
Direct configuration=     9
   0.00000000  0.00000000  0.00000000
Og_FCC                                  
           1
     4.347780    0.000000    0.000000
     2.173890    3.765288    0.075306
     2.173890    1.255096    3.575050
   Og
   1
Direct configuration=    10
   0.00000000  0.00000000  0.00000000
Og_FCC                                  
           1
     4.347780    0.000000    0.000000
     2.173890    3.765288   -0.075306
     2.173890    1.255096    3.524846
   Og
   1
Direct configuration=    11
   0.00000000  0.00000000  0.00000000
Og_FCC                                  
           1
     4.347780    0.000000    0.000000
     2.173890    3.765288   -0.000000
     2.244889    1.255096    3.549948
   Og
   1
Direct configuration=    12
   0.00000000  0.00000000  0.00000000
Og_FCC                                  
           1
     4.347780    0.000000    0.000000
     2.173890    3.765288   -0.000000
     2.102891    1.255096    3.549948
   Og
   1
Direct configuration=    13
   0.00000000  0.00000000  0.00000000
Og_FCC                                  
           1
     4.347780    0.000000    0.000000
     2.173890    3.765288   -0.000000
     2.173890    1.255096    3.549948
   Og
   1
Direct configuration=    14
   0.00460005  0.00000000 -0.00000000
Og_FCC                                  
           1
     4.347780    0.000000    0.000000
     2.173890    3.765288   -0.000000
     2.173890    1.255096    3.549948
   Og
   1
Direct configuration=    15
  -0.00460005 -0.00000000  0.00000000
Og_FCC                                  
           1
     4.347780    0.000000    0.000000
     2.173890    3.765288   -0.000000
     2.173890    1.255096    3.549948
   Og
   1
Direct configuration=    16
  -0.00265584  0.00531168  0.00000000
Og_FCC                                  
           1
     4.347780    0.000000    0.000000
     2.173890    3.765288   -0.000000
     2.173890    1.255096    3.549948
   Og
   1
Direct configuration=    17
   0.00265584 -0.00531168 -0.00000000
Og_FCC                                  
           1
     4.347780    0.000000    0.000000
     2.173890    3.765288   -0.000000
     2.173890    1.255096    3.549948
   Og
   1
Direct configuration=    18
  -0.00187796 -0.00187796  0.00563389
Og_FCC                                  
           1
     4.347780    0.000000    0.000000
     2.173890    3.765288   -0.000000
     2.173890    1.255096    3.549948
   Og
   1
Direct configuration=    19
   0.00187796  0.00187796 -0.00563389
