   1   1   0   0
  0.5764366E+02  0.4335996E-09  0.4335996E-09  0.4335996E-09  0.1000000E-15
  1.000000000000000E-004
  CAR 
 Og_FCC                                  
     13.51163214    -18.42038267  301     -3.59860580      1.00000000
    -18.420  0.0000E+00  0.0000E+00
    -18.314  0.0000E+00  0.0000E+00
    -18.208  0.0000E+00  0.0000E+00
    -18.101  0.0000E+00  0.0000E+00
    -17.995  0.0000E+00  0.0000E+00
    -17.888  0.0000E+00  0.0000E+00
    -17.782  0.0000E+00  0.0000E+00
    -17.675  0.0000E+00  0.0000E+00
    -17.569  0.0000E+00  0.0000E+00
    -17.462  0.0000E+00  0.0000E+00
    -17.356  0.0000E+00  0.0000E+00
    -17.250  0.0000E+00  0.0000E+00
    -17.143  0.0000E+00  0.0000E+00
    -17.037  0.0000E+00  0.0000E+00
    -16.930  0.0000E+00  0.9259E-02
    -16.824  0.1044E+01  0.2500E+00
    -16.717  0.2947E+01  0.8600E+00
    -16.611  0.0000E+00  0.2000E+01
    -16.504  0.0000E+00  0.2000E+01
    -16.398  0.0000E+00  0.2000E+01
    -16.292  0.0000E+00  0.2000E+01
    -16.185  0.0000E+00  0.2000E+01
    -16.079  0.0000E+00  0.2000E+01
    -15.972  0.0000E+00  0.2000E+01
    -15.866  0.0000E+00  0.2000E+01
    -15.759  0.0000E+00  0.2000E+01
    -15.653  0.0000E+00  0.2000E+01
    -15.547  0.0000E+00  0.2000E+01
    -15.440  0.0000E+00  0.2000E+01
    -15.334  0.0000E+00  0.2000E+01
    -15.227  0.0000E+00  0.2000E+01
    -15.121  0.0000E+00  0.2000E+01
    -15.014  0.0000E+00  0.2000E+01
    -14.908  0.0000E+00  0.2000E+01
    -14.801  0.0000E+00  0.2000E+01
    -14.695  0.0000E+00  0.2000E+01
    -14.589  0.0000E+00  0.2000E+01
    -14.482  0.0000E+00  0.2000E+01
    -14.376  0.0000E+00  0.2000E+01
    -14.269  0.0000E+00  0.2000E+01
    -14.163  0.0000E+00  0.2000E+01
    -14.056  0.0000E+00  0.2000E+01
    -13.950  0.0000E+00  0.2000E+01
    -13.843  0.0000E+00  0.2000E+01
    -13.737  0.0000E+00  0.2000E+01
    -13.631  0.0000E+00  0.2000E+01
    -13.524  0.0000E+00  0.2000E+01
    -13.418  0.0000E+00  0.2000E+01
    -13.311  0.0000E+00  0.2000E+01
    -13.205  0.0000E+00  0.2000E+01
    -13.098  0.0000E+00  0.2000E+01
    -12.992  0.0000E+00  0.2000E+01
    -12.886  0.0000E+00  0.2000E+01
    -12.779  0.0000E+00  0.2000E+01
    -12.673  0.0000E+00  0.2000E+01
    -12.566  0.0000E+00  0.2000E+01
    -12.460  0.0000E+00  0.2000E+01
    -12.353  0.0000E+00  0.2000E+01
    -12.247  0.0000E+00  0.2000E+01
    -12.140  0.0000E+00  0.2000E+01
    -12.034  0.0000E+00  0.2000E+01
    -11.928  0.0000E+00  0.2000E+01
    -11.821  0.0000E+00  0.2000E+01
    -11.715  0.0000E+00  0.2000E+01
    -11.608  0.0000E+00  0.2000E+01
    -11.502  0.0000E+00  0.2000E+01
    -11.395  0.0000E+00  0.2000E+01
    -11.289  0.0000E+00  0.2000E+01
    -11.182  0.0000E+00  0.2000E+01
    -11.076  0.0000E+00  0.2000E+01
    -10.970  0.0000E+00  0.2000E+01
    -10.863  0.0000E+00  0.2000E+01
    -10.757  0.0000E+00  0.2000E+01
    -10.650  0.0000E+00  0.2000E+01
    -10.544  0.0000E+00  0.2000E+01
    -10.437  0.0000E+00  0.2000E+01
    -10.331  0.0000E+00  0.2000E+01
    -10.224  0.0000E+00  0.2000E+01
    -10.118  0.0000E+00  0.2000E+01
    -10.012  0.0000E+00  0.2000E+01
     -9.905  0.0000E+00  0.2000E+01
     -9.799  0.0000E+00  0.2000E+01
     -9.692  0.0000E+00  0.2000E+01
     -9.586  0.0000E+00  0.2000E+01
     -9.479  0.0000E+00  0.2000E+01
     -9.373  0.0000E+00  0.2000E+01
     -9.267  0.0000E+00  0.2000E+01
     -9.160  0.0000E+00  0.2000E+01
     -9.054  0.0000E+00  0.2000E+01
     -8.947  0.0000E+00  0.2000E+01
     -8.841  0.0000E+00  0.2000E+01
     -8.734  0.0000E+00  0.2000E+01
     -8.628  0.0000E+00  0.2000E+01
     -8.521  0.0000E+00  0.2000E+01
     -8.415  0.0000E+00  0.2000E+01
     -8.309  0.0000E+00  0.2000E+01
     -8.202  0.0000E+00  0.2000E+01
     -8.096  0.0000E+00  0.2000E+01
     -7.989  0.0000E+00  0.2000E+01
     -7.883  0.0000E+00  0.2000E+01
     -7.776  0.0000E+00  0.2000E+01
     -7.670  0.0000E+00  0.2000E+01
     -7.563  0.0000E+00  0.2000E+01
     -7.457  0.0000E+00  0.2000E+01
     -7.351  0.0000E+00  0.2000E+01
     -7.244  0.0000E+00  0.2000E+01
     -7.138  0.0000E+00  0.2000E+01
     -7.031  0.0000E+00  0.2000E+01
     -6.925  0.0000E+00  0.2000E+01
     -6.818  0.0000E+00  0.2000E+01
     -6.712  0.0000E+00  0.2000E+01
     -6.606  0.0000E+00  0.2000E+01
     -6.499  0.0000E+00  0.2000E+01
     -6.393  0.0000E+00  0.2000E+01
     -6.286  0.0000E+00  0.2000E+01
     -6.180  0.0000E+00  0.2000E+01
     -6.073  0.1581E-04  0.2000E+01
     -5.967  0.2088E+01  0.2287E+01
     -5.860  0.0000E+00  0.3176E+01
     -5.754  0.0000E+00  0.3528E+01
     -5.648  0.0000E+00  0.3528E+01
     -5.541  0.0000E+00  0.3750E+01
     -5.435  0.0000E+00  0.3861E+01
     -5.328  0.0000E+00  0.3861E+01
     -5.222  0.6956E+00  0.3991E+01
     -5.115  0.0000E+00  0.3991E+01
     -5.009  0.8699E-01  0.4000E+01
     -4.902  0.0000E+00  0.4111E+01
     -4.796  0.0000E+00  0.4694E+01
     -4.690  0.5051E-01  0.4922E+01
     -4.583  0.0000E+00  0.5417E+01
     -4.477  0.3644E+00  0.5492E+01
     -4.370  0.0000E+00  0.5861E+01
     -4.264  0.0000E+00  0.6556E+01
     -4.157  0.0000E+00  0.6833E+01
     -4.051  0.0000E+00  0.7111E+01
     -3.945  0.0000E+00  0.7630E+01
     -3.838  0.4758E+00  0.7828E+01
     -3.732  0.0000E+00  0.7907E+01
     -3.625  0.0000E+00  0.8000E+01
     -3.519  0.0000E+00  0.8000E+01
     -3.412  0.0000E+00  0.8000E+01
     -3.306  0.0000E+00  0.8000E+01
     -3.199  0.0000E+00  0.8000E+01
     -3.093  0.0000E+00  0.8000E+01
     -2.987  0.0000E+00  0.8000E+01
     -2.880  0.0000E+00  0.8000E+01
     -2.774  0.0000E+00  0.8000E+01
     -2.667  0.0000E+00  0.8000E+01
     -2.561  0.0000E+00  0.8000E+01
     -2.454  0.0000E+00  0.8000E+01
     -2.348  0.0000E+00  0.8000E+01
     -2.241  0.0000E+00  0.8000E+01
     -2.135  0.0000E+00  0.8000E+01
     -2.029  0.0000E+00  0.8000E+01
     -1.922  0.0000E+00  0.8000E+01
     -1.816  0.0000E+00  0.8000E+01
     -1.709  0.0000E+00  0.8000E+01
     -1.603  0.0000E+00  0.8000E+01
     -1.496  0.0000E+00  0.8000E+01
     -1.390  0.0000E+00  0.8000E+01
     -1.284  0.0000E+00  0.8000E+01
     -1.177  0.0000E+00  0.8000E+01
     -1.071  0.0000E+00  0.8000E+01
     -0.964  0.0000E+00  0.8000E+01
     -0.858  0.0000E+00  0.8000E+01
     -0.751  0.0000E+00  0.8000E+01
     -0.645  0.0000E+00  0.8000E+01
     -0.538  0.0000E+00  0.8000E+01
     -0.432  0.0000E+00  0.8000E+01
     -0.326  0.0000E+00  0.8000E+01
     -0.219  0.0000E+00  0.8000E+01
     -0.113  0.0000E+00  0.8000E+01
     -0.006  0.0000E+00  0.8000E+01
      0.100  0.0000E+00  0.8000E+01
      0.207  0.0000E+00  0.8000E+01
      0.313  0.0000E+00  0.8000E+01
      0.420  0.0000E+00  0.8000E+01
      0.526  0.0000E+00  0.8000E+01
      0.632  0.0000E+00  0.8000E+01
      0.739  0.0000E+00  0.8000E+01
      0.845  0.0000E+00  0.8000E+01
      0.952  0.0000E+00  0.8000E+01
      1.058  0.0000E+00  0.8000E+01
      1.165  0.0000E+00  0.8000E+01
      1.271  0.0000E+00  0.8000E+01
      1.377  0.0000E+00  0.8000E+01
      1.484  0.0000E+00  0.8000E+01
      1.590  0.0000E+00  0.8000E+01
      1.697  0.0000E+00  0.8000E+01
      1.803  0.0000E+00  0.8000E+01
      1.910  0.0000E+00  0.8000E+01
      2.016  0.0000E+00  0.8000E+01
      2.123  0.0000E+00  0.8000E+01
      2.229  0.0000E+00  0.8000E+01
      2.335  0.0000E+00  0.8000E+01
      2.442  0.0000E+00  0.8000E+01
      2.548  0.0000E+00  0.8000E+01
      2.655  0.0000E+00  0.8000E+01
      2.761  0.0000E+00  0.8000E+01
      2.868  0.0000E+00  0.8009E+01
      2.974  0.0000E+00  0.8009E+01
      3.081  0.0000E+00  0.8009E+01
      3.187  0.0000E+00  0.8009E+01
      3.293  0.0000E+00  0.8009E+01
      3.400  0.0000E+00  0.8009E+01
      3.506  0.0000E+00  0.8009E+01
      3.613  0.0000E+00  0.8083E+01
      3.719  0.1328E-12  0.8083E+01
      3.826  0.0000E+00  0.8167E+01
      3.932  0.0000E+00  0.8167E+01
      4.038  0.0000E+00  0.8167E+01
      4.145  0.0000E+00  0.8167E+01
      4.251  0.2610E+01  0.8444E+01
      4.358  0.0000E+00  0.8556E+01
      4.464  0.0000E+00  0.8667E+01
      4.571  0.0000E+00  0.8778E+01
      4.677  0.2610E+00  0.9028E+01
      4.784  0.0000E+00  0.9028E+01
      4.890  0.0000E+00  0.9361E+01
      4.996  0.0000E+00  0.9361E+01
      5.103  0.0000E+00  0.9861E+01
      5.209  0.0000E+00  0.1008E+02
      5.316  0.0000E+00  0.1031E+02
      5.422  0.0000E+00  0.1031E+02
      5.529  0.0000E+00  0.1031E+02
      5.635  0.0000E+00  0.1042E+02
      5.742  0.0000E+00  0.1042E+02
      5.848  0.0000E+00  0.1086E+02
      5.954  0.0000E+00  0.1131E+02
      6.061  0.1044E+01  0.1142E+02
      6.167  0.0000E+00  0.1164E+02
      6.274  0.0000E+00  0.1169E+02
      6.380  0.0000E+00  0.1203E+02
      6.487  0.0000E+00  0.1203E+02
      6.593  0.0000E+00  0.1203E+02
      6.699  0.4307E-06  0.1203E+02
      6.806  0.0000E+00  0.1232E+02
      6.912  0.0000E+00  0.1232E+02
      7.019  0.0000E+00  0.1266E+02
      7.125  0.0000E+00  0.1303E+02
      7.232  0.0000E+00  0.1303E+02
      7.338  0.0000E+00  0.1329E+02
      7.445  0.0000E+00  0.1354E+02
      7.551  0.0000E+00  0.1354E+02
      7.657  0.0000E+00  0.1394E+02
      7.764  0.0000E+00  0.1433E+02
      7.870  0.0000E+00  0.1439E+02
      7.977  0.0000E+00  0.1467E+02
      8.083  0.1044E+01  0.1483E+02
      8.190  0.0000E+00  0.1517E+02
      8.296  0.0000E+00  0.1539E+02
      8.403  0.0000E+00  0.1539E+02
      8.509  0.0000E+00  0.1539E+02
      8.615  0.0000E+00  0.1561E+02
      8.722  0.0000E+00  0.1561E+02
      8.828  0.0000E+00  0.1583E+02
      8.935  0.0000E+00  0.1583E+02
      9.041  0.0000E+00  0.1583E+02
      9.148  0.2046E-11  0.1583E+02
      9.254  0.0000E+00  0.1591E+02
      9.360  0.0000E+00  0.1616E+02
      9.467  0.0000E+00  0.1638E+02
      9.573  0.0000E+00  0.1644E+02
      9.680  0.0000E+00  0.1644E+02
      9.786  0.0000E+00  0.1694E+02
      9.893  0.0000E+00  0.1694E+02
      9.999  0.2171E+00  0.1697E+02
     10.106  0.0000E+00  0.1702E+02
     10.212  0.0000E+00  0.1702E+02
     10.318  0.0000E+00  0.1717E+02
     10.425  0.0000E+00  0.1739E+02
     10.531  0.0000E+00  0.1739E+02
     10.638  0.2088E+01  0.1761E+02
     10.744  0.0000E+00  0.1761E+02
     10.851  0.0000E+00  0.1761E+02
     10.957  0.1919E+01  0.1782E+02
     11.064  0.0000E+00  0.1783E+02
     11.170  0.0000E+00  0.1783E+02
     11.276  0.0000E+00  0.1783E+02
     11.383  0.0000E+00  0.1783E+02
     11.489  0.0000E+00  0.1783E+02
     11.596  0.0000E+00  0.1783E+02
     11.702  0.0000E+00  0.1786E+02
     11.809  0.0000E+00  0.1788E+02
     11.915  0.0000E+00  0.1789E+02
     12.021  0.0000E+00  0.1789E+02
     12.128  0.0000E+00  0.1800E+02
     12.234  0.0000E+00  0.1800E+02
     12.341  0.0000E+00  0.1800E+02
     12.447  0.0000E+00  0.1800E+02
     12.554  0.0000E+00  0.1800E+02
     12.660  0.0000E+00  0.1800E+02
     12.767  0.0000E+00  0.1800E+02
     12.873  0.0000E+00  0.1800E+02
     12.979  0.0000E+00  0.1800E+02
     13.086  0.0000E+00  0.1800E+02
     13.192  0.0000E+00  0.1800E+02
     13.299  0.0000E+00  0.1800E+02
     13.405  0.0000E+00  0.1800E+02
     13.512  0.0000E+00  0.1800E+02
