    1    1    1    1
  0.5764366E+02  0.4335996E-09  0.4335996E-09  0.4335996E-09  0.1000000E-15
  1.000000000000000E-004
  CAR 
 Og_FCC                                  
      8    216     18
 
  0.0000000E+00  0.0000000E+00  0.0000000E+00  0.4629630E-02
    1      -16.968927   1.000000
    2      -16.968927   1.000000
    3       -5.013342   1.000000
    4       -5.013342   1.000000
    5       -3.660503   1.000000
    6       -3.660503   1.000000
    7       -3.660499   1.000000
    8       -3.660499   1.000000
    9        2.810505   0.000000
   10        2.810506   0.000000
   11        7.359397   0.000000
   12        7.359397   0.000000
   13        7.359417   0.000000
   14        7.359417   0.000000
   15        7.419354   0.000000
   16        7.419354   0.000000
   17        9.711414   0.000000
   18        9.711418   0.000000
 
  0.1666667E+00  0.1535160E-17  0.2775558E-16  0.4629630E-02
    1      -16.909274   1.000000
    2      -16.909274   1.000000
    3       -5.224170   1.000000
    4       -5.224170   1.000000
    5       -4.022526   1.000000
    6       -4.022526   1.000000
    7       -3.719430   1.000000
    8       -3.719430   1.000000
    9        3.530271   0.000000
   10        3.530271   0.000000
   11        6.702894   0.000000
   12        6.702894   0.000000
   13        7.574151   0.000000
   14        7.574151   0.000000
   15        7.634774   0.000000
   16        7.634775   0.000000
   17        9.153053   0.000000
   18        9.153536   0.000000
 
  0.3333333E+00 -0.5244083E-16 -0.1387779E-16  0.4629630E-02
    1      -16.783435   1.000000
    2      -16.783435   1.000000
    3       -5.770912   1.000000
    4       -5.770912   1.000000
    5       -4.431071   1.000000
    6       -4.431071   1.000000
    7       -3.831855   1.000000
    8       -3.831855   1.000000
    9        4.274733   0.000000
   10        4.274734   0.000000
   11        6.929873   0.000000
   12        6.929873   0.000000
   13        7.255438   0.000000
   14        7.255438   0.000000
   15        7.320808   0.000000
   16        7.320808   0.000000
   17        9.999381   0.000000
   18        9.999715   0.000000
 
  0.5000000E+00 -0.7866125E-16 -0.2775558E-16  0.4629630E-02
    1      -16.718684   1.000000
    2      -16.718684   1.000000
    3       -6.070570   1.000000
    4       -6.070570   1.000000
    5       -4.550619   1.000000
    6       -4.550619   1.000000
    7       -3.885717   1.000000
    8       -3.885717   1.000000
    9        4.264595   0.000000
   10        4.264596   0.000000
   11        6.982797   0.000000
   12        6.982798   0.000000
   13        7.043799   0.000000
   14        7.043800   0.000000
   15        7.593808   0.000000
   16        7.593809   0.000000
   17       10.220949   0.000000
   18       10.220949   0.000000
 
 -0.3333333E+00  0.5244083E-16  0.1387779E-16  0.4629630E-02
    1      -16.783435   1.000000
    2      -16.783435   1.000000
    3       -5.770912   1.000000
    4       -5.770912   1.000000
    5       -4.431071   1.000000
    6       -4.431071   1.000000
    7       -3.831855   1.000000
    8       -3.831855   1.000000
    9        4.274734   0.000000
   10        4.274734   0.000000
   11        6.929873   0.000000
   12        6.929873   0.000000
   13        7.255438   0.000000
   14        7.255438   0.000000
   15        7.320808   0.000000
   16        7.320808   0.000000
   17        9.999378   0.000000
   18        9.999706   0.000000
 
 -0.1666667E+00 -0.1535160E-17 -0.2775558E-16  0.4629630E-02
    1      -16.909274   1.000000
    2      -16.909274   1.000000
    3       -5.224170   1.000000
    4       -5.224170   1.000000
    5       -4.022526   1.000000
    6       -4.022526   1.000000
    7       -3.719430   1.000000
    8       -3.719430   1.000000
    9        3.530271   0.000000
   10        3.530271   0.000000
   11        6.702894   0.000000
   12        6.702894   0.000000
   13        7.574151   0.000000
   14        7.574151   0.000000
   15        7.634774   0.000000
   16        7.634775   0.000000
   17        9.152753   0.000000
   18        9.153024   0.000000
 
  0.0000000E+00  0.1666667E+00  0.0000000E+00  0.4629630E-02
    1      -16.909275   1.000000
    2      -16.909275   1.000000
    3       -5.224170   1.000000
    4       -5.224170   1.000000
    5       -4.022526   1.000000
    6       -4.022526   1.000000
    7       -3.719431   1.000000
    8       -3.719431   1.000000
    9        3.530273   0.000000
   10        3.530273   0.000000
   11        6.702889   0.000000
   12        6.702889   0.000000
   13        7.574152   0.000000
   14        7.574152   0.000000
   15        7.634776   0.000000
   16        7.634776   0.000000
   17        9.152383   0.000000
   18        9.153241   0.000000
 
  0.1666667E+00  0.1666667E+00  0.4163336E-16  0.4629630E-02
    1      -16.889458   1.000000
    2      -16.889458   1.000000
    3       -5.263597   1.000000
    4       -5.263597   1.000000
    5       -4.067591   1.000000
    6       -4.067591   1.000000
    7       -3.839051   1.000000
    8       -3.839051   1.000000
    9        3.771917   0.000000
   10        3.771917   0.000000
   11        6.236649   0.000000
   12        6.236649   0.000000
   13        7.809301   0.000000
   14        7.809301   0.000000
   15        7.967615   0.000000
   16        7.967615   0.000000
   17        8.023464   0.000000
   18        8.023464   0.000000
 
  0.3333333E+00  0.1666667E+00  0.0000000E+00  0.4629630E-02
    1      -16.785299   1.000000
    2      -16.785299   1.000000
    3       -5.635285   1.000000
    4       -5.635285   1.000000
    5       -4.455548   1.000000
    6       -4.455548   1.000000
    7       -3.987157   1.000000
    8       -3.987156   1.000000
    9        4.595876   0.000000
   10        4.595876   0.000000
   11        5.933825   0.000000
   12        5.933825   0.000000
   13        6.792111   0.000000
   14        6.792111   0.000000
   15        8.132631   0.000000
   16        8.132631   0.000000
   17        9.326609   0.000000
   18        9.326610   0.000000
 
  0.5000000E+00  0.1666667E+00  0.8326673E-16  0.4629630E-02
    1      -16.698197   1.000000
    2      -16.698197   1.000000
    3       -5.969863   1.000000
    4       -5.969863   1.000000
    5       -4.688220   1.000000
    6       -4.688220   1.000000
    7       -4.092713   1.000000
    8       -4.092713   1.000000
    9        4.824797   0.000000
   10        4.824797   0.000000
   11        5.926048   0.000000
   12        5.926049   0.000000
   13        7.386933   0.000000
   14        7.386934   0.000000
   15        7.667832   0.000000
   16        7.667833   0.000000
   17       10.633881   0.000000
   18       10.633881   0.000000
 
 -0.3333333E+00  0.1666667E+00  0.0000000E+00  0.4629630E-02
    1      -16.719934   1.000000
    2      -16.719934   1.000000
    3       -5.883716   1.000000
    4       -5.883716   1.000000
    5       -4.673513   1.000000
    6       -4.673513   1.000000
    7       -4.039244   1.000000
    8       -4.039244   1.000000
    9        5.004009   0.000000
   10        5.004009   0.000000
   11        6.099245   0.000000
   12        6.099246   0.000000
   13        7.045029   0.000000
   14        7.045030   0.000000
   15        7.572836   0.000000
   16        7.572836   0.000000
   17        9.717231   0.000000
   18        9.717232   0.000000
 
 -0.1666667E+00  0.1666667E+00  0.3218561E-17  0.4629630E-02
    1      -16.826845   1.000000
    2      -16.826845   1.000000
    3       -5.504243   1.000000
    4       -5.504242   1.000000
    5       -4.358202   1.000000
    6       -4.358202   1.000000
    7       -3.868590   1.000000
    8       -3.868589   1.000000
    9        4.444107   0.000000
   10        4.444108   0.000000
   11        6.279976   0.000000
   12        6.279976   0.000000
   13        7.034178   0.000000
   14        7.034178   0.000000
   15        8.079972   0.000000
   16        8.079972   0.000000
   17        8.160030   0.000000
   18        8.160030   0.000000
 
  0.0000000E+00  0.3333333E+00  0.1387779E-16  0.4629630E-02
    1      -16.783435   1.000000
    2      -16.783435   1.000000
    3       -5.770910   1.000000
    4       -5.770910   1.000000
    5       -4.431071   1.000000
    6       -4.431070   1.000000
    7       -3.831855   1.000000
    8       -3.831855   1.000000
    9        4.274738   0.000000
   10        4.274738   0.000000
   11        6.929864   0.000000
   12        6.929865   0.000000
   13        7.255438   0.000000
   14        7.255438   0.000000
   15        7.320808   0.000000
   16        7.320808   0.000000
   17        9.999387   0.000000
   18        9.999691   0.000000
 
  0.1666667E+00  0.3333333E+00  0.5551115E-16  0.4629630E-02
    1      -16.785299   1.000000
    2      -16.785299   1.000000
    3       -5.635284   1.000000
    4       -5.635284   1.000000
    5       -4.455547   1.000000
    6       -4.455547   1.000000
    7       -3.987157   1.000000
    8       -3.987157   1.000000
    9        4.595877   0.000000
   10        4.595878   0.000000
   11        5.933822   0.000000
   12        5.933822   0.000000
   13        6.792117   0.000000
   14        6.792118   0.000000
   15        8.132632   0.000000
   16        8.132632   0.000000
   17        9.326599   0.000000
   18        9.326599   0.000000
 
  0.3333333E+00  0.3333333E+00  0.5551115E-16  0.4629630E-02
    1      -16.722723   1.000000
    2      -16.722723   1.000000
    3       -5.772503   1.000000
    4       -5.772503   1.000000
    5       -4.619727   1.000000
    6       -4.619727   1.000000
    7       -4.166306   1.000000
    8       -4.166306   1.000000
    9        4.244286   0.000000
   10        4.244286   0.000000
   11        5.079786   0.000000
   12        5.079786   0.000000
   13        7.726741   0.000000
   14        7.726742   0.000000
   15        9.559642   0.000000
   16        9.559642   0.000000
   17        9.696110   0.000000
   18        9.696111   0.000000
 
  0.5000000E+00  0.3333333E+00  0.0000000E+00  0.4629630E-02
    1      -16.657303   1.000000
    2      -16.657303   1.000000
    3       -5.933984   1.000000
    4       -5.933984   1.000000
    5       -4.818978   1.000000
    6       -4.818978   1.000000
    7       -4.323429   1.000000
    8       -4.323429   1.000000
    9        4.243700   0.000000
   10        4.243701   0.000000
   11        5.244719   0.000000
   12        5.244719   0.000000
   13        7.914990   0.000000
   14        7.914990   0.000000
   15        9.421273   0.000000
   16        9.421273   0.000000
   17       10.956095   0.000000
   18       10.956095   0.000000
 
 -0.3333333E+00  0.3333333E+00  0.9626754E-17  0.4629630E-02
    1      -16.655966   1.000000
    2      -16.655966   1.000000
    3       -5.898660   1.000000
    4       -5.898660   1.000000
    5       -4.950423   1.000000
    6       -4.950423   1.000000
    7       -4.290372   1.000000
    8       -4.290372   1.000000
    9        4.827371   0.000000
   10        4.827371   0.000000
   11        6.056605   0.000000
   12        6.056606   0.000000
   13        7.238052   0.000000
   14        7.238053   0.000000
   15        8.564476   0.000000
   16        8.564476   0.000000
   17       10.260384   0.000000
   18       10.260386   0.000000
 
 -0.1666667E+00  0.3333333E+00 -0.6938894E-17  0.4629630E-02
    1      -16.719934   1.000000
    2      -16.719934   1.000000
    3       -5.883714   1.000000
    4       -5.883714   1.000000
    5       -4.673514   1.000000
    6       -4.673514   1.000000
    7       -4.039244   1.000000
    8       -4.039244   1.000000
    9        5.004013   0.000000
   10        5.004013   0.000000
   11        6.099246   0.000000
   12        6.099246   0.000000
   13        7.045024   0.000000
   14        7.045024   0.000000
   15        7.572836   0.000000
   16        7.572836   0.000000
   17        9.717231   0.000000
   18        9.717231   0.000000
 
  0.0000000E+00  0.5000000E+00  0.2775558E-16  0.4629630E-02
    1      -16.718684   1.000000
    2      -16.718684   1.000000
    3       -6.070567   1.000000
    4       -6.070567   1.000000
    5       -4.550619   1.000000
    6       -4.550619   1.000000
    7       -3.885718   1.000000
    8       -3.885718   1.000000
    9        4.264599   0.000000
   10        4.264599   0.000000
   11        6.982797   0.000000
   12        6.982797   0.000000
   13        7.043799   0.000000
   14        7.043799   0.000000
   15        7.593803   0.000000
   16        7.593804   0.000000
   17       10.220953   0.000000
   18       10.220953   0.000000
 
  0.1666667E+00  0.5000000E+00  0.0000000E+00  0.4629630E-02
    1      -16.698198   1.000000
    2      -16.698198   1.000000
    3       -5.969861   1.000000
    4       -5.969861   1.000000
    5       -4.688220   1.000000
    6       -4.688220   1.000000
    7       -4.092714   1.000000
    8       -4.092714   1.000000
    9        4.824798   0.000000
   10        4.824798   0.000000
   11        5.926051   0.000000
   12        5.926052   0.000000
   13        7.386933   0.000000
   14        7.386933   0.000000
   15        7.667833   0.000000
   16        7.667833   0.000000
   17       10.633875   0.000000
   18       10.633876   0.000000
 
  0.3333333E+00  0.5000000E+00  0.0000000E+00  0.4629630E-02
    1      -16.657303   1.000000
    2      -16.657303   1.000000
    3       -5.933983   1.000000
    4       -5.933983   1.000000
    5       -4.818978   1.000000
    6       -4.818978   1.000000
    7       -4.323430   1.000000
    8       -4.323430   1.000000
    9        4.243700   0.000000
   10        4.243700   0.000000
   11        5.244718   0.000000
   12        5.244718   0.000000
   13        7.914999   0.000000
   14        7.914999   0.000000
   15        9.421273   0.000000
   16        9.421273   0.000000
   17       10.956078   0.000000
   18       10.956078   0.000000
 
  0.5000000E+00  0.5000000E+00  0.1110223E-15  0.4629630E-02
    1      -16.636366   1.000000
    2      -16.636366   1.000000
    3       -6.021504   1.000000
    4       -6.021504   1.000000
    5       -4.824665   1.000000
    6       -4.824665   1.000000
    7       -4.317552   1.000000
    8       -4.317552   1.000000
    9        3.724188   0.000000
   10        3.724189   0.000000
   11        4.673717   0.000000
   12        4.673717   0.000000
   13        9.294045   0.000000
   14        9.294046   0.000000
   15       11.637243   0.000000
   16       11.637244   0.000000
   17       11.719994   0.000000
   18       11.732144   0.000000
 
 -0.3333333E+00  0.5000000E+00 -0.2775558E-16  0.4629630E-02
    1      -16.657303   1.000000
    2      -16.657303   1.000000
    3       -5.933983   1.000000
    4       -5.933983   1.000000
    5       -4.818978   1.000000
    6       -4.818978   1.000000
    7       -4.323430   1.000000
    8       -4.323430   1.000000
    9        4.243700   0.000000
   10        4.243700   0.000000
   11        5.244718   0.000000
   12        5.244718   0.000000
   13        7.914999   0.000000
   14        7.914999   0.000000
   15        9.421273   0.000000
   16        9.421273   0.000000
   17       10.956078   0.000000
   18       10.956078   0.000000
 
 -0.1666667E+00  0.5000000E+00 -0.4163336E-16  0.4629630E-02
    1      -16.698198   1.000000
    2      -16.698198   1.000000
    3       -5.969861   1.000000
    4       -5.969861   1.000000
    5       -4.688220   1.000000
    6       -4.688220   1.000000
    7       -4.092714   1.000000
    8       -4.092714   1.000000
    9        4.824798   0.000000
   10        4.824798   0.000000
   11        5.926051   0.000000
   12        5.926052   0.000000
   13        7.386933   0.000000
   14        7.386933   0.000000
   15        7.667833   0.000000
   16        7.667833   0.000000
   17       10.633875   0.000000
   18       10.633876   0.000000
 
  0.0000000E+00 -0.3333333E+00 -0.1387779E-16  0.4629630E-02
    1      -16.783435   1.000000
    2      -16.783435   1.000000
    3       -5.770910   1.000000
    4       -5.770910   1.000000
    5       -4.431071   1.000000
    6       -4.431070   1.000000
    7       -3.831855   1.000000
    8       -3.831855   1.000000
    9        4.274738   0.000000
   10        4.274738   0.000000
   11        6.929864   0.000000
   12        6.929865   0.000000
   13        7.255438   0.000000
   14        7.255438   0.000000
   15        7.320808   0.000000
   16        7.320808   0.000000
   17        9.999388   0.000000
   18        9.999397   0.000000
 
  0.1666667E+00 -0.3333333E+00  0.6938894E-17  0.4629630E-02
    1      -16.719934   1.000000
    2      -16.719934   1.000000
    3       -5.883714   1.000000
    4       -5.883714   1.000000
    5       -4.673514   1.000000
    6       -4.673514   1.000000
    7       -4.039244   1.000000
    8       -4.039244   1.000000
    9        5.004013   0.000000
   10        5.004013   0.000000
   11        6.099246   0.000000
   12        6.099246   0.000000
   13        7.045024   0.000000
   14        7.045024   0.000000
   15        7.572836   0.000000
   16        7.572836   0.000000
   17        9.717231   0.000000
   18        9.717231   0.000000
 
  0.3333333E+00 -0.3333333E+00 -0.9626754E-17  0.4629630E-02
    1      -16.655966   1.000000
    2      -16.655966   1.000000
    3       -5.898660   1.000000
    4       -5.898660   1.000000
    5       -4.950423   1.000000
    6       -4.950423   1.000000
    7       -4.290372   1.000000
    8       -4.290372   1.000000
    9        4.827371   0.000000
   10        4.827371   0.000000
   11        6.056605   0.000000
   12        6.056606   0.000000
   13        7.238052   0.000000
   14        7.238053   0.000000
   15        8.564476   0.000000
   16        8.564476   0.000000
   17       10.260384   0.000000
   18       10.260580   0.000000
 
  0.5000000E+00 -0.3333333E+00 -0.3469447E-16  0.4629630E-02
    1      -16.657303   1.000000
    2      -16.657303   1.000000
    3       -5.933984   1.000000
    4       -5.933984   1.000000
    5       -4.818978   1.000000
    6       -4.818978   1.000000
    7       -4.323429   1.000000
    8       -4.323429   1.000000
    9        4.243700   0.000000
   10        4.243701   0.000000
   11        5.244719   0.000000
   12        5.244719   0.000000
   13        7.914990   0.000000
   14        7.914990   0.000000
   15        9.421273   0.000000
   16        9.421273   0.000000
   17       10.956095   0.000000
   18       10.956095   0.000000
 
 -0.3333333E+00 -0.3333333E+00 -0.5551115E-16  0.4629630E-02
    1      -16.722723   1.000000
    2      -16.722723   1.000000
    3       -5.772503   1.000000
    4       -5.772503   1.000000
    5       -4.619727   1.000000
    6       -4.619727   1.000000
    7       -4.166306   1.000000
    8       -4.166306   1.000000
    9        4.244286   0.000000
   10        4.244286   0.000000
   11        5.079786   0.000000
   12        5.079786   0.000000
   13        7.726741   0.000000
   14        7.726742   0.000000
   15        9.559642   0.000000
   16        9.559642   0.000000
   17        9.696110   0.000000
   18        9.696111   0.000000
 
 -0.1666667E+00 -0.3333333E+00 -0.5551115E-16  0.4629630E-02
    1      -16.785299   1.000000
    2      -16.785299   1.000000
    3       -5.635284   1.000000
    4       -5.635284   1.000000
    5       -4.455547   1.000000
    6       -4.455547   1.000000
    7       -3.987157   1.000000
    8       -3.987157   1.000000
    9        4.595877   0.000000
   10        4.595878   0.000000
   11        5.933822   0.000000
   12        5.933822   0.000000
   13        6.792117   0.000000
   14        6.792118   0.000000
   15        8.132632   0.000000
   16        8.132632   0.000000
   17        9.326599   0.000000
   18        9.326599   0.000000
 
  0.0000000E+00 -0.1666667E+00  0.0000000E+00  0.4629630E-02
    1      -16.909275   1.000000
    2      -16.909275   1.000000
    3       -5.224170   1.000000
    4       -5.224170   1.000000
    5       -4.022526   1.000000
    6       -4.022526   1.000000
    7       -3.719431   1.000000
    8       -3.719431   1.000000
    9        3.530273   0.000000
   10        3.530273   0.000000
   11        6.702889   0.000000
   12        6.702889   0.000000
   13        7.574152   0.000000
   14        7.574152   0.000000
   15        7.634776   0.000000
   16        7.634776   0.000000
   17        9.153371   0.000000
   18        9.159951   0.000000
 
  0.1666667E+00 -0.1666667E+00 -0.3218561E-17  0.4629630E-02
    1      -16.826845   1.000000
    2      -16.826845   1.000000
    3       -5.504243   1.000000
    4       -5.504242   1.000000
    5       -4.358202   1.000000
    6       -4.358202   1.000000
    7       -3.868590   1.000000
    8       -3.868589   1.000000
    9        4.444107   0.000000
   10        4.444108   0.000000
   11        6.279976   0.000000
   12        6.279976   0.000000
   13        7.034178   0.000000
   14        7.034178   0.000000
   15        8.079972   0.000000
   16        8.079972   0.000000
   17        8.160030   0.000000
   18        8.160030   0.000000
 
  0.3333333E+00 -0.1666667E+00  0.0000000E+00  0.4629630E-02
    1      -16.719934   1.000000
    2      -16.719934   1.000000
    3       -5.883716   1.000000
    4       -5.883716   1.000000
    5       -4.673513   1.000000
    6       -4.673513   1.000000
    7       -4.039244   1.000000
    8       -4.039244   1.000000
    9        5.004009   0.000000
   10        5.004009   0.000000
   11        6.099245   0.000000
   12        6.099246   0.000000
   13        7.045029   0.000000
   14        7.045030   0.000000
   15        7.572836   0.000000
   16        7.572836   0.000000
   17        9.717231   0.000000
   18        9.717232   0.000000
 
  0.5000000E+00 -0.1666667E+00  0.2775558E-16  0.4629630E-02
    1      -16.698197   1.000000
    2      -16.698197   1.000000
    3       -5.969863   1.000000
    4       -5.969863   1.000000
    5       -4.688220   1.000000
    6       -4.688220   1.000000
    7       -4.092713   1.000000
    8       -4.092713   1.000000
    9        4.824797   0.000000
   10        4.824797   0.000000
   11        5.926048   0.000000
   12        5.926049   0.000000
   13        7.386933   0.000000
   14        7.386934   0.000000
   15        7.667832   0.000000
   16        7.667833   0.000000
   17       10.633881   0.000000
   18       10.633881   0.000000
 
 -0.3333333E+00 -0.1666667E+00  0.0000000E+00  0.4629630E-02
    1      -16.785299   1.000000
    2      -16.785299   1.000000
    3       -5.635285   1.000000
    4       -5.635285   1.000000
    5       -4.455548   1.000000
    6       -4.455548   1.000000
    7       -3.987157   1.000000
    8       -3.987156   1.000000
    9        4.595876   0.000000
   10        4.595876   0.000000
   11        5.933825   0.000000
   12        5.933825   0.000000
   13        6.792111   0.000000
   14        6.792111   0.000000
   15        8.132631   0.000000
   16        8.132631   0.000000
   17        9.326609   0.000000
   18        9.326610   0.000000
 
 -0.1666667E+00 -0.1666667E+00 -0.4163336E-16  0.4629630E-02
    1      -16.889458   1.000000
    2      -16.889458   1.000000
    3       -5.263597   1.000000
    4       -5.263597   1.000000
    5       -4.067591   1.000000
    6       -4.067591   1.000000
    7       -3.839051   1.000000
    8       -3.839051   1.000000
    9        3.771917   0.000000
   10        3.771917   0.000000
   11        6.236649   0.000000
   12        6.236649   0.000000
   13        7.809301   0.000000
   14        7.809301   0.000000
   15        7.967615   0.000000
   16        7.967615   0.000000
   17        8.023464   0.000000
   18        8.023464   0.000000
 
  0.1540744E-32  0.7703720E-33  0.1666667E+00  0.4629630E-02
    1      -16.909275   1.000000
    2      -16.909274   1.000000
    3       -5.224170   1.000000
    4       -5.224170   1.000000
    5       -4.022526   1.000000
    6       -4.022526   1.000000
    7       -3.719430   1.000000
    8       -3.719430   1.000000
    9        3.530271   0.000000
   10        3.530272   0.000000
   11        6.702893   0.000000
   12        6.702894   0.000000
   13        7.574151   0.000000
   14        7.574151   0.000000
   15        7.634774   0.000000
   16        7.634775   0.000000
   17        9.152478   0.000000
   18        9.152980   0.000000
 
  0.1666667E+00  0.1080747E-16  0.1666667E+00  0.4629630E-02
    1      -16.889458   1.000000
    2      -16.889458   1.000000
    3       -5.263596   1.000000
    4       -5.263596   1.000000
    5       -4.067591   1.000000
    6       -4.067591   1.000000
    7       -3.839051   1.000000
    8       -3.839051   1.000000
    9        3.771918   0.000000
   10        3.771918   0.000000
   11        6.236650   0.000000
   12        6.236650   0.000000
   13        7.809297   0.000000
   14        7.809297   0.000000
   15        7.967613   0.000000
   16        7.967613   0.000000
   17        8.023463   0.000000
   18        8.023463   0.000000
 
  0.3333333E+00 -0.5704631E-16  0.1666667E+00  0.4629630E-02
    1      -16.785299   1.000000
    2      -16.785299   1.000000
    3       -5.635284   1.000000
    4       -5.635284   1.000000
    5       -4.455547   1.000000
    6       -4.455547   1.000000
    7       -3.987157   1.000000
    8       -3.987157   1.000000
    9        4.595876   0.000000
   10        4.595876   0.000000
   11        5.933826   0.000000
   12        5.933827   0.000000
   13        6.792111   0.000000
   14        6.792111   0.000000
   15        8.132629   0.000000
   16        8.132629   0.000000
   17        9.326603   0.000000
   18        9.326603   0.000000
 
  0.5000000E+00 -0.8326673E-16  0.1666667E+00  0.4629630E-02
    1      -16.698198   1.000000
    2      -16.698198   1.000000
    3       -5.969862   1.000000
    4       -5.969862   1.000000
    5       -4.688220   1.000000
    6       -4.688220   1.000000
    7       -4.092713   1.000000
    8       -4.092713   1.000000
    9        4.824795   0.000000
   10        4.824795   0.000000
   11        5.926049   0.000000
   12        5.926049   0.000000
   13        7.386937   0.000000
   14        7.386937   0.000000
   15        7.667834   0.000000
   16        7.667834   0.000000
   17       10.633875   0.000000
   18       10.633875   0.000000
 
 -0.3333333E+00  0.4783535E-16  0.1666667E+00  0.4629630E-02
    1      -16.719934   1.000000
    2      -16.719934   1.000000
    3       -5.883716   1.000000
    4       -5.883716   1.000000
    5       -4.673513   1.000000
    6       -4.673513   1.000000
    7       -4.039244   1.000000
    8       -4.039244   1.000000
    9        5.004009   0.000000
   10        5.004009   0.000000
   11        6.099244   0.000000
   12        6.099244   0.000000
   13        7.045029   0.000000
   14        7.045030   0.000000
   15        7.572839   0.000000
   16        7.572839   0.000000
   17        9.717231   0.000000
   18        9.717231   0.000000
 
 -0.1666667E+00  0.2161493E-16  0.1666667E+00  0.4629630E-02
    1      -16.826845   1.000000
    2      -16.826845   1.000000
    3       -5.504244   1.000000
    4       -5.504243   1.000000
    5       -4.358202   1.000000
    6       -4.358202   1.000000
    7       -3.868589   1.000000
    8       -3.868589   1.000000
    9        4.444105   0.000000
   10        4.444106   0.000000
   11        6.279978   0.000000
   12        6.279979   0.000000
   13        7.034177   0.000000
   14        7.034177   0.000000
   15        8.079977   0.000000
   16        8.079977   0.000000
   17        8.160027   0.000000
   18        8.160027   0.000000
 
  0.7703720E-33  0.1666667E+00  0.1666667E+00  0.4629630E-02
    1      -16.889458   1.000000
    2      -16.889458   1.000000
    3       -5.263597   1.000000
    4       -5.263597   1.000000
    5       -4.067592   1.000000
    6       -4.067592   1.000000
    7       -3.839050   1.000000
    8       -3.839050   1.000000
    9        3.771917   0.000000
   10        3.771918   0.000000
   11        6.236646   0.000000
   12        6.236646   0.000000
   13        7.809299   0.000000
   14        7.809300   0.000000
   15        7.967616   0.000000
   16        7.967616   0.000000
   17        8.023466   0.000000
   18        8.023466   0.000000
 
  0.1666667E+00  0.1666667E+00  0.1666667E+00  0.4629630E-02
    1      -16.909274   1.000000
    2      -16.909274   1.000000
    3       -5.224171   1.000000
    4       -5.224171   1.000000
    5       -4.022527   1.000000
    6       -4.022527   1.000000
    7       -3.719429   1.000000
    8       -3.719429   1.000000
    9        3.530269   0.000000
   10        3.530269   0.000000
   11        6.702918   0.000000
   12        6.702918   0.000000
   13        7.574149   0.000000
   14        7.574149   0.000000
   15        7.634772   0.000000
   16        7.634772   0.000000
   17        9.152206   0.000000
   18        9.163128   0.000000
 
  0.3333333E+00  0.1666667E+00  0.1666667E+00  0.4629630E-02
    1      -16.826844   1.000000
    2      -16.826844   1.000000
    3       -5.504245   1.000000
    4       -5.504245   1.000000
    5       -4.358204   1.000000
    6       -4.358204   1.000000
    7       -3.868588   1.000000
    8       -3.868587   1.000000
    9        4.444100   0.000000
   10        4.444100   0.000000
   11        6.279999   0.000000
   12        6.279999   0.000000
   13        7.034186   0.000000
   14        7.034186   0.000000
   15        8.079979   0.000000
   16        8.079979   0.000000
   17        8.160012   0.000000
   18        8.160012   0.000000
 
  0.5000000E+00  0.1666667E+00  0.1666667E+00  0.4629630E-02
    1      -16.719934   1.000000
    2      -16.719934   1.000000
    3       -5.883717   1.000000
    4       -5.883717   1.000000
    5       -4.673516   1.000000