 vasp.5.4.4.18Apr17-6-g9f103f2a35 (build Nov 03 2018 10:20:46) complex          
  
 executed on             LinuxIFC date 2018.12.20  14:36:45
 running on   32 total cores
 distrk:  each k-point on    8 cores,    4 groups
 distr:  one band on NCORES_PER_BAND=   4 cores,    2 groups


--------------------------------------------------------------------------------------------------------


 INCAR:
 POTCAR:    PAW_PBE Xe_GW 08Jan2009               

 ----------------------------------------------------------------------------- 
|                                                                             |
|           W    W    AA    RRRRR   N    N  II  N    N   GGGG   !!!           |
|           W    W   A  A   R    R  NN   N  II  NN   N  G    G  !!!           |
|           W    W  A    A  R    R  N N  N  II  N N  N  G       !!!           |
|           W WW W  AAAAAA  RRRRR   N  N N  II  N  N N  G  GGG   !            |
|           WW  WW  A    A  R   R   N   NN  II  N   NN  G    G                |
|           W    W  A    A  R    R  N    N  II  N    N   GGGG   !!!           |
|                                                                             |
|      You have enabled k-point parallelism (KPAR>1).                         |
|      This developmental code was originally  written by Paul Kent at ORNL,  |
|      and carefully double checked in Vienna.                                |
|      GW as well as linear response parallelism added by Martijn Marsman     |
|      and Georg Kresse.                                                      |
|      Carefully verify results versus KPAR=1.                                |
|      Report problems to Paul Kent and Vienna.                               |
|                                                                             |
 ----------------------------------------------------------------------------- 

 POTCAR:    PAW_PBE Xe_GW 08Jan2009               
   VRHFIN =Xe: s2p6                                                             
   LEXCH  = PE                                                                  
   EATOM  =   429.5160 eV,   31.5685 Ry                                         
                                                                                
   TITEL  = PAW_PBE Xe_GW 08Jan2009                                             
   LULTRA =        F    use ultrasoft PP ?                                      
   IUNSCR =        1    unscreen: 0-lin 1-nonlin 2-no                           
   RPACOR =    1.800    partial core radius                                     
   POMASS =  131.294; ZVAL   =    8.000    mass and valenz                      
   RCORE  =    2.500    outmost cutoff radius                                   
   RWIGS  =    2.500; RWIGS  =    1.323    wigner-seitz radius (au A)           
   ENMAX  =  179.547; ENMIN  =  134.660 eV                                      
   RCLOC  =    2.013    cutoff for local pot                                    
   LCOR   =        T    correct aug charges                                     
   LPAW   =        T    paw PP                                                  
   EAUG   =  605.900                                                            
   DEXC   =    0.000                                                            
   RMAX   =    2.564    core radius for proj-oper                               
   RAUG   =    1.300    factor for augmentation sphere                          
   RDEP   =    2.580    radius for radial grids                                 
   RDEPT  =    2.108    core radius for aug-charge                              
                                                                                
   Atomic configuration                                                         
   13 entries                                                                   
     n  l   j            E        occ.                                          
     1  0  0.50    -34364.0918   2.0000                                         
     2  0  0.50     -5347.7047   2.0000                                         
     2  1  1.50     -4797.8080   6.0000                                         
     3  0  0.50     -1093.8565   2.0000                                         
     3  1  1.50      -916.3531   6.0000                                         
     3  2  2.50      -653.3728  10.0000                                         
     4  0  0.50      -197.4109   2.0000                                         
     4  1  1.50      -141.2234   6.0000                                         
     4  2  2.50       -59.3742  10.0000                                         
     5  0  0.50       -19.7401   2.0000                                         
     5  1  0.50        -8.2334   6.0000                                         
     5  2  1.50        -6.8029   0.0000                                         
     4  3  2.50        -6.8029   0.0000                                         
   Description                                                                  
     l       E           TYP  RCUT    TYP  RCUT                                 
     0    -19.7400602     23  1.800                                             
     0    -13.6058260     23  1.800                                             
     1     -8.2333784     23  2.300                                             
     1      2.7211652     23  2.300                                             
     2     -6.8029130     23  2.500                                             
     2     40.8174780     23  2.500                                             
     3      6.8029130     23  2.500                                             
     3     27.2116520     23  2.500                                             
  local pseudopotential read in
  partial core-charges read in
  partial kinetic energy density read in
  kinetic energy density of atom read in
  atomic valenz-charges read in
  non local Contribution for L=           0  read in
    real space projection operators read in
  non local Contribution for L=           0  read in
    real space projection operators read in
  non local Contribution for L=           1  read in
    real space projection operators read in
  non local Contribution for L=           1  read in
    real space projection operators read in
  non local Contribution for L=           2  read in
    real space projection operators read in
  non local Contribution for L=           2  read in
    real space projection operators read in
  non local Contribution for L=           3  read in
    real space projection operators read in
  non local Contribution for L=           3  read in
    real space projection operators read in
    PAW grid and wavefunctions read in
 
   number of l-projection  operators is LMAX  =           8
   number of lm-projection operators is LMMAX =          32
 
  PAW_PBE Xe_GW 08Jan2009               :
 energy of atom  1       EATOM= -429.5160
 kinetic energy error for atom=    0.0132 (will be added to EATOM!!)
 
 
 POSCAR: Xe_FCC                                  
  positions in direct lattice
  velocities in cartesian coordinates

 METAGGA = SCAN     LMAXTAU =  0    LMIXTAU =  F

 exchange correlation table for  LEXCH =        8
   RHO(1)=    0.500       N(1)  =     2000
   RHO(2)=  100.500       N(2)  =     4000
 


--------------------------------------------------------------------------------------------------------


 ion  position               nearest neighbor table
   1  0.000  0.000  0.000-
 

IMPORTANT INFORMATION: All symmetrisations will be switched off!
NOSYMM: (Re-)initialisation of all symmetry stuff for point group C_1.

 
 
 KPOINTS: k-points                                

Automatic generation of k-mesh.
Space group operators:
 irot       det(A)        alpha          n_x          n_y          n_z        tau_x        tau_y        tau_z
    1     1.000000     0.000000     1.000000     0.000000     0.000000     0.000000     0.000000     0.000000
 
 Subroutine IBZKPT returns following result:
 ===========================================
 
 Found    216 irreducible k-points:
 
 Following reciprocal coordinates:
            Coordinates               Weight
  0.000000  0.000000  0.000000      1.000000
  0.166667  0.000000  0.000000      1.000000
  0.333333 -0.000000 -0.000000      1.000000
  0.500000 -0.000000 -0.000000      1.000000
 -0.333333  0.000000  0.000000      1.000000
 -0.166667 -0.000000 -0.000000      1.000000
  0.000000  0.166667  0.000000      1.000000
  0.166667  0.166667  0.000000      1.000000
  0.333333  0.166667  0.000000      1.000000
  0.500000  0.166667  0.000000      1.000000
 -0.333333  0.166667  0.000000      1.000000
 -0.166667  0.166667  0.000000      1.000000
  0.000000  0.333333  0.000000      1.000000
  0.166667  0.333333  0.000000      1.000000
  0.333333  0.333333  0.000000      1.000000
  0.500000  0.333333  0.000000      1.000000
 -0.333333  0.333333  0.000000      1.000000
 -0.166667  0.333333 -0.000000      1.000000
  0.000000  0.500000  0.000000      1.000000
  0.166667  0.500000  0.000000      1.000000
  0.333333  0.500000  0.000000      1.000000
  0.500000  0.500000  0.000000      1.000000
 -0.333333  0.500000 -0.000000      1.000000
 -0.166667  0.500000 -0.000000      1.000000
  0.000000 -0.333333 -0.000000      1.000000
  0.166667 -0.333333  0.000000      1.000000
  0.333333 -0.333333 -0.000000      1.000000
  0.500000 -0.333333 -0.000000      1.000000
 -0.333333 -0.333333 -0.000000      1.000000
 -0.166667 -0.333333 -0.000000      1.000000
  0.000000 -0.166667  0.000000      1.000000
  0.166667 -0.166667 -0.000000      1.000000
  0.333333 -0.166667  0.000000      1.000000
  0.500000 -0.166667  0.000000      1.000000
 -0.333333 -0.166667  0.000000      1.000000
 -0.166667 -0.166667 -0.000000      1.000000
  0.000000  0.000000  0.166667      1.000000
  0.166667  0.000000  0.166667      1.000000
  0.333333 -0.000000  0.166667      1.000000
  0.500000 -0.000000  0.166667      1.000000
 -0.333333  0.000000  0.166667      1.000000
 -0.166667  0.000000  0.166667      1.000000
  0.000000  0.166667  0.166667      1.000000
  0.166667  0.166667  0.166667      1.000000
  0.333333  0.166667  0.166667      1.000000
  0.500000  0.166667  0.166667      1.000000
 -0.333333  0.166667  0.166667      1.000000
 -0.166667  0.166667  0.166667      1.000000
  0.000000  0.333333  0.166667      1.000000
  0.166667  0.333333  0.166667      1.000000
  0.333333  0.333333  0.166667      1.000000
  0.500000  0.333333  0.166667      1.000000
 -0.333333  0.333333  0.166667      1.000000
 -0.166667  0.333333  0.166667      1.000000
  0.000000  0.500000  0.166667      1.000000
  0.166667  0.500000  0.166667      1.000000
  0.333333  0.500000  0.166667      1.000000
  0.500000  0.500000  0.166667      1.000000
 -0.333333  0.500000  0.166667      1.000000
 -0.166667  0.500000  0.166667      1.000000
  0.000000 -0.333333  0.166667      1.000000
  0.166667 -0.333333  0.166667      1.000000
  0.333333 -0.333333  0.166667      1.000000
  0.500000 -0.333333  0.166667      1.000000
 -0.333333 -0.333333  0.166667      1.000000
 -0.166667 -0.333333  0.166667      1.000000
  0.000000 -0.166667  0.166667      1.000000
  0.166667 -0.166667  0.166667      1.000000
  0.333333 -0.166667  0.166667      1.000000
  0.500000 -0.166667  0.166667      1.000000
 -0.333333 -0.166667  0.166667      1.000000
 -0.166667 -0.166667  0.166667      1.000000
  0.000000  0.000000  0.333333      1.000000
  0.166667 -0.000000  0.333333      1.000000
  0.333333 -0.000000  0.333333      1.000000
  0.500000 -0.000000  0.333333      1.000000
 -0.333333  0.000000  0.333333      1.000000
 -0.166667  0.000000  0.333333      1.000000
  0.000000  0.166667  0.333333      1.000000
  0.166667  0.166667  0.333333      1.000000
  0.333333  0.166667  0.333333      1.000000
  0.500000  0.166667  0.333333      1.000000
 -0.333333  0.166667  0.333333      1.000000
 -0.166667  0.166667  0.333333      1.000000
 -0.000000  0.333333  0.333333      1.000000
  0.166667  0.333333  0.333333      1.000000
  0.333333  0.333333  0.333333      1.000000
  0.500000  0.333333  0.333333      1.000000
 -0.333333  0.333333  0.333333      1.000000
 -0.166667  0.333333  0.333333      1.000000
  0.000000  0.500000  0.333333      1.000000
  0.166667  0.500000  0.333333      1.000000
  0.333333  0.500000  0.333333      1.000000
  0.500000  0.500000  0.333333      1.000000
 -0.333333  0.500000  0.333333      1.000000
 -0.166667  0.500000  0.333333      1.000000
  0.000000 -0.333333  0.333333      1.000000
  0.166667 -0.333333  0.333333      1.000000
  0.333333 -0.333333  0.333333      1.000000
  0.500000 -0.333333  0.333333      1.000000
 -0.333333 -0.333333  0.333333      1.000000
 -0.166667 -0.333333  0.333333      1.000000
  0.000000 -0.166667  0.333333      1.000000
  0.166667 -0.166667  0.333333      1.000000
  0.333333 -0.166667  0.333333      1.000000
  0.500000 -0.166667  0.333333      1.000000
 -0.333333 -0.166667  0.333333      1.000000
 -0.166667 -0.166667  0.333333      1.000000
  0.000000 -0.000000  0.500000      1.000000
  0.166667  0.000000  0.500000      1.000000
  0.333333 -0.000000  0.500000      1.000000
  0.500000 -0.000000  0.500000      1.000000
 -0.333333  0.000000  0.500000      1.000000
 -0.166667  0.000000  0.500000      1.000000
  0.000000  0.166667  0.500000      1.000000
  0.166667  0.166667  0.500000      1.000000
  0.333333  0.166667  0.500000      1.000000
  0.500000  0.166667  0.500000      1.000000
 -0.333333  0.166667  0.500000      1.000000
 -0.166667  0.166667  0.500000      1.000000
 -0.000000  0.333333  0.500000      1.000000
  0.166667  0.333333  0.500000      1.000000
  0.333333  0.333333  0.500000      1.000000
  0.500000  0.333333  0.500000      1.000000
 -0.333333  0.333333  0.500000      1.000000
 -0.166667  0.333333  0.500000      1.000000
  0.000000  0.500000  0.500000      1.000000
  0.166667  0.500000  0.500000      1.000000
  0.333333  0.500000  0.500000      1.000000
  0.500000  0.500000  0.500000      1.000000
 -0.333333  0.500000  0.500000      1.000000
 -0.166667  0.500000  0.500000      1.000000
  0.000000 -0.333333  0.500000      1.000000
  0.166667 -0.333333  0.500000      1.000000
  0.333333 -0.333333  0.500000      1.000000
  0.500000 -0.333333  0.500000      1.000000
 -0.333333 -0.333333  0.500000      1.000000
 -0.166667 -0.333333  0.500000      1.000000
  0.000000 -0.166667  0.500000      1.000000
  0.166667 -0.166667  0.500000      1.000000
  0.333333 -0.166667  0.500000      1.000000
  0.500000 -0.166667  0.500000      1.000000
 -0.333333 -0.166667  0.500000      1.000000
 -0.166667 -0.166667  0.500000      1.000000
 -0.000000 -0.000000 -0.333333      1.000000
  0.166667 -0.000000 -0.333333      1.000000
  0.333333 -0.000000 -0.333333      1.000000
  0.500000 -0.000000 -0.333333      1.000000
 -0.333333  0.000000 -0.333333      1.000000
 -0.166667  0.000000 -0.333333      1.000000
  0.000000  0.166667 -0.333333      1.000000
  0.166667  0.166667 -0.333333      1.000000
  0.333333  0.166667 -0.333333      1.000000
  0.500000  0.166667 -0.333333      1.000000
 -0.333333  0.166667 -0.333333      1.000000
 -0.166667  0.166667 -0.333333      1.000000
 -0.000000  0.333333 -0.333333      1.000000
  0.166667  0.333333 -0.333333      1.000000
  0.333333  0.333333 -0.333333      1.000000
  0.500000  0.333333 -0.333333      1.000000
 -0.333333  0.333333 -0.333333      1.000000
 -0.166667  0.333333 -0.333333      1.000000
 -0.000000  0.500000 -0.333333      1.000000
  0.166667  0.500000 -0.333333      1.000000
  0.333333  0.500000 -0.333333      1.000000
  0.500000  0.500000 -0.333333      1.000000
 -0.333333  0.500000 -0.333333      1.000000
 -0.166667  0.500000 -0.333333      1.000000
  0.000000 -0.333333 -0.333333      1.000000
  0.166667 -0.333333 -0.333333      1.000000
  0.333333 -0.333333 -0.333333      1.000000
  0.500000 -0.333333 -0.333333      1.000000
 -0.333333 -0.333333 -0.333333      1.000000
 -0.166667 -0.333333 -0.333333      1.000000
 -0.000000 -0.166667 -0.333333      1.000000
  0.166667 -0.166667 -0.333333      1.000000
  0.333333 -0.166667 -0.333333      1.000000
  0.500000 -0.166667 -0.333333      1.000000
 -0.333333 -0.166667 -0.333333      1.000000
 -0.166667 -0.166667 -0.333333      1.000000
 -0.000000 -0.000000 -0.166667      1.000000
  0.166667 -0.000000 -0.166667      1.000000
  0.333333 -0.000000 -0.166667      1.000000
  0.500000 -0.000000 -0.166667      1.000000
 -0.333333  0.000000 -0.166667      1.000000
 -0.166667 -0.000000 -0.166667      1.000000
 -0.000000  0.166667 -0.166667      1.000000
  0.166667  0.166667 -0.166667      1.000000
  0.333333  0.166667 -0.166667      1.000000
  0.500000  0.166667 -0.166667      1.000000
 -0.333333  0.166667 -0.166667      1.000000
 -0.166667  0.166667 -0.166667      1.000000
  0.000000  0.333333 -0.166667      1.000000
  0.166667  0.333333 -0.166667      1.000000
  0.333333  0.333333 -0.166667      1.000000
  0.500000  0.333333 -0.166667      1.000000
 -0.333333  0.333333 -0.166667      1.000000
 -0.166667  0.333333 -0.166667      1.000000
  0.000000  0.500000 -0.166667      1.000000
  0.166667  0.500000 -0.166667      1.000000
  0.333333  0.500000 -0.166667      1.000000
  0.500000  0.500000 -0.166667      1.000000
 -0.333333  0.500000 -0.166667      1.000000
 -0.166667  0.500000 -0.166667      1.000000
 -0.000000 -0.333333 -0.166667      1.000000
  0.166667 -0.333333 -0.166667      1.000000
  0.333333 -0.333333 -0.166667      1.000000
  0.500000 -0.333333 -0.166667      1.000000
 -0.333333 -0.333333 -0.166667      1.000000
 -0.166667 -0.333333 -0.166667      1.000000
 -0.000000 -0.166667 -0.166667      1.000000
  0.166667 -0.166667 -0.166667      1.000000
  0.333333 -0.166667 -0.166667      1.000000
  0.500000 -0.166667 -0.166667      1.000000
 -0.333333 -0.166667 -0.166667      1.000000
 -0.166667 -0.166667 -0.166667      1.000000
 
 Following cartesian coordinates:
            Coordinates               Weight
  0.000000  0.000000  0.000000      1.000000
  0.037604 -0.021710 -0.015352      1.000000
  0.075207 -0.043421 -0.030703      1.000000
  0.112811 -0.065131 -0.046055      1.000000
 -0.075207  0.043421  0.030703      1.000000
 -0.037604  0.021710  0.015352      1.000000
  0.000000  0.043421 -0.015352      1.000000
  0.037604  0.021710 -0.030703      1.000000
  0.075207  0.000000 -0.046055      1.000000
  0.112811 -0.021710 -0.061406      1.000000
 -0.075207  0.086842  0.015352      1.000000
 -0.037604  0.065131  0.000000      1.000000
  0.000000  0.086842 -0.030703      1.000000
  0.037604  0.065131 -0.046055      1.000000
  0.075207  0.043421 -0.061406      1.000000
  0.112811  0.021710 -0.076758      1.000000
 -0.075207  0.130263  0.000000      1.000000
 -0.037604  0.108552 -0.015352      1.000000
  0.000000  0.130263 -0.046055      1.000000
  0.037604  0.108552 -0.061406      1.000000
  0.075207  0.086842 -0.076758      1.000000
  0.112811  0.065131 -0.092110      1.000000
 -0.075207  0.173684 -0.015352      1.000000
 -0.037604  0.151973 -0.030703      1.000000
 -0.000000 -0.086842  0.030703      1.000000
  0.037604 -0.108552  0.015352      1.000000
  0.075207 -0.130263 -0.000000      1.000000
  0.112811 -0.151973 -0.015352      1.000000
 -0.075207 -0.043421  0.061406      1.000000
 -0.037604 -0.065131  0.046055      1.000000
 -0.000000 -0.043421  0.015352      1.000000
  0.037604 -0.065131 -0.000000      1.000000
  0.075207 -0.086842 -0.015352      1.000000
  0.112811 -0.108552 -0.030703      1.000000
 -0.075207 -0.000000  0.046055      1.000000
 -0.037604 -0.021710  0.030703      1.000000
 -0.000000  0.000000  0.046055      1.000000
  0.037604 -0.021710  0.030703      1.000000
  0.075207 -0.043421  0.015352      1.000000
  0.112811 -0.065131 -0.000000      1.000000
 -0.075207  0.043421  0.076758      1.000000
 -0.037604  0.021710  0.061406      1.000000
 -0.000000  0.043421  0.030703      1.000000
  0.037604  0.021710  0.015352      1.000000
  0.075207  0.000000  0.000000      1.000000
  0.112811 -0.021710 -0.015352      1.000000
 -0.075207  0.086842  0.061406      1.000000
 -0.037604  0.065131  0.046055      1.000000
 -0.000000  0.086842  0.015352      1.000000
  0.037604  0.065131  0.000000      1.000000
  0.075207  0.043421 -0.015352      1.000000
  0.112811  0.021710 -0.030703      1.000000
 -0.075207  0.130263  0.046055      1.000000
 -0.037604  0.108552  0.030703      1.000000
 -0.000000  0.130263  0.000000      1.000000
  0.037604  0.108552 -0.015352      1.000000
  0.075207  0.086842 -0.030703      1.000000
  0.112811  0.065131 -0.046055      1.000000
 -0.075207  0.173684  0.030703      1.000000
 -0.037604  0.151973  0.015352      1.000000
 -0.000000 -0.086842  0.076758      1.000000
  0.037604 -0.108552  0.061406      1.000000
  0.075207 -0.130263  0.046055      1.000000
  0.112811 -0.151973  0.030703      1.000000
 -0.075207 -0.043421  0.107461      1.000000
 -0.037604 -0.065131  0.092110      1.000000
 -0.000000 -0.043421  0.061406      1.000000
  0.037604 -0.065131  0.046055      1.000000
  0.075207 -0.086842  0.030703      1.000000
  0.112811 -0.108552  0.015352      1.000000
 -0.075207 -0.000000  0.092110      1.000000
 -0.037604 -0.021710  0.076758      1.000000
 -0.000000  0.000000  0.092110      1.000000
  0.037604 -0.021710  0.076758      1.000000
  0.075207 -0.043421  0.061406      1.000000
  0.112811 -0.065131  0.046055      1.000000
 -0.075207  0.043421  0.122813      1.000000
 -0.037604  0.021710  0.107461      1.000000
 -0.000000  0.043421  0.076758      1.000000
  0.037604  0.021710  0.061406      1.000000
  0.075207  0.000000  0.046055      1.000000
  0.112811 -0.021710  0.030703      1.000000
 -0.075207  0.086842  0.107461      1.000000
 -0.037604  0.065131  0.092110      1.000000
 -0.000000  0.086842  0.061406      1.000000
  0.037604  0.065131  0.046055      1.000000
  0.075207  0.043421  0.030703      1.000000
  0.112811  0.021710  0.015352      1.000000
 -0.075207  0.130263  0.092110      1.000000
 -0.037604  0.108552  0.076758      1.000000
 -0.000000  0.130263  0.046055      1.000000
  0.037604  0.108552  0.030703      1.000000
  0.075207  0.086842  0.015352      1.000000
  0.112811  0.065131  0.000000      1.000000
 -0.075207  0.173684  0.076758      1.000000
 -0.037604  0.151973  0.061406      1.000000
 -0.000000 -0.086842  0.122813      1.000000
  0.037604 -0.108552  0.107461      1.000000
  0.075207 -0.130263  0.092110      1.000000
  0.112811 -0.151973  0.076758      1.000000
 -0.075207 -0.043421  0.153516      1.000000
 -0.037604 -0.065131  0.138164      1.000000
 -0.000000 -0.043421  0.107461      1.000000
  0.037604 -0.065131  0.092110      1.000000
  0.075207 -0.086842  0.076758      1.000000
  0.112811 -0.108552  0.061406      1.000000
 -0.075207 -0.000000  0.138164      1.000000
 -0.037604 -0.021710  0.122813      1.000000
 -0.000000  0.000000  0.138164      1.000000
  0.037604 -0.021710  0.122813      1.000000
  0.075207 -0.043421  0.107461      1.000000
  0.112811 -0.065131  0.092110      1.000000
 -0.075207  0.043421  0.168868      1.000000
 -0.037604  0.021710  0.153516      1.000000
 -0.000000  0.043421  0.122813      1.000000
  0.037604  0.021710  0.107461      1.000000
  0.075207  0.000000  0.092110      1.000000
  0.112811 -0.021710  0.076758      1.000000
 -0.075207  0.086842  0.153516      1.000000
 -0.037604  0.065131  0.138164      1.000000
 -0.000000  0.086842  0.107461      1.000000
  0.037604  0.065131  0.092110      1.000000
  0.075207  0.043421  0.076758      1.000000
  0.112811  0.021710  0.061406      1.000000
 -0.075207  0.130263  0.138164      1.000000
 -0.037604  0.108552  0.122813      1.000000
 -0.000000  0.130263  0.092110      1.000000
  0.037604  0.108552  0.076758      1.000000
  0.075207  0.086842  0.061406      1.000000
  0.112811  0.065131  0.046055      1.000000
 -0.075207  0.173684  0.122813      1.000000
 -0.037604  0.151973  0.107461      1.000000
 -0.000000 -0.086842  0.168868      1.000000
  0.037604 -0.108552  0.153516      1.000000
  0.075207 -0.130263  0.138164      1.000000
  0.112811 -0.151973  0.122813      1.000000
 -0.075207 -0.043421  0.199571      1.000000
 -0.037604 -0.065131  0.184219      1.000000
 -0.000000 -0.043421  0.153516      1.000000
  0.037604 -0.065131  0.138164      1.000000
  0.075207 -0.086842  0.122813      1.000000
  0.112811 -0.108552  0.107461      1.000000
 -0.075207 -0.000000  0.184219      1.000000
 -0.037604 -0.021710  0.168868      1.000000
  0.000000 -0.000000 -0.092110      1.000000
  0.037604 -0.021710 -0.107461      1.000000
  0.075207 -0.043421 -0.122813      1.000000
  0.112811 -0.065131 -0.138164      1.000000
 -0.075207  0.043421 -0.061406      1.000000
 -0.037604  0.021710 -0.076758      1.000000
  0.000000  0.043421 -0.107461      1.000000
  0.037604  0.021710 -0.122813      1.000000
  0.075207  0.000000 -0.138164      1.000000
  0.112811 -0.021710 -0.153516      1.000000
 -0.075207  0.086842 -0.076758      1.000000
 -0.037604  0.065131 -0.092110      1.000000
  0.000000  0.086842 -0.122813      1.000000
  0.037604  0.065131 -0.138164      1.000000
  0.075207  0.043421 -0.153516      1.000000
  0.112811  0.021710 -0.168868      1.000000
 -0.075207  0.130263 -0.092110      1.000000
 -0.037604  0.108552 -0.107461      1.000000
  0.000000  0.130263 -0.138164      1.000000
  0.037604  0.108552 -0.153516      1.000000
  0.075207  0.086842 -0.168868      1.000000
  0.112811  0.065131 -0.184219      1.000000
 -0.075207  0.173684 -0.107461      1.000000
 -0.037604  0.151973 -0.122813      1.000000
  0.000000 -0.086842 -0.061406      1.000000
  0.037604 -0.108552 -0.076758      1.000000
  0.075207 -0.130263 -0.092110      1.000000
  0.112811 -0.151973 -0.107461      1.000000
 -0.075207 -0.043421 -0.030703      1.000000
 -0.037604 -0.065131 -0.046055      1.000000
  0.000000 -0.043421 -0.076758      1.000000
  0.037604 -0.065131 -0.092110      1.000000
  0.075207 -0.086842 -0.107461      1.000000
  0.112811 -0.108552 -0.122813      1.000000
 -0.075207 -0.000000 -0.046055      1.000000
 -0.037604 -0.021710 -0.061406      1.000000
  0.000000 -0.000000 -0.046055      1.000000
  0.037604 -0.021710 -0.061406      1.000000
  0.075207 -0.043421 -0.076758      1.000000
  0.112811 -0.065131 -0.092110      1.000000
 -0.075207  0.043421 -0.015352      1.000000
 -0.037604  0.021710 -0.030703      1.000000
  0.000000  0.043421 -0.061406      1.000000
  0.037604  0.021710 -0.076758      1.000000
  0.075207  0.000000 -0.092110      1.000000
  0.112811 -0.021710 -0.107461      1.000000
 -0.075207  0.086842 -0.030703      1.000000
 -0.037604  0.065131 -0.046055      1.000000
  0.000000  0.086842 -0.076758      1.000000
  0.037604  0.065131 -0.092110      1.000000
  0.075207  0.043421 -0.107461      1.000000
  0.112811  0.021710 -0.122813      1.000000
 -0.075207  0.130263 -0.046055      1.000000
 -0.037604  0.108552 -0.061406      1.000000
  0.000000  0.130263 -0.092110      1.000000
  0.037604  0.108552 -0.107461      1.000000
  0.075207  0.086842 -0.122813      1.000000
  0.112811  0.065131 -0.138164      1.000000
 -0.075207  0.173684 -0.061406      1.000000
 -0.037604  0.151973 -0.076758      1.000000
  0.000000 -0.086842 -0.015352      1.000000
  0.037604 -0.108552 -0.030703      1.000000
  0.075207 -0.130263 -0.046055      1.000000
  0.112811 -0.151973 -0.061406      1.000000
 -0.075207 -0.043421  0.015352      1.000000
 -0.037604 -0.065131  0.000000      1.000000
  0.000000 -0.043421 -0.030703      1.000000
  0.037604 -0.065131 -0.046055      1.000000
  0.075207 -0.086842 -0.061406      1.000000
  0.112811 -0.108552 -0.076758      1.000000
 -0.075207 -0.000000 -0.000000      1.000000
 -0.037604 -0.021710 -0.015352      1.000000
 


--------------------------------------------------------------------------------------------------------




 Dimension of arrays:
   k-points           NKPTS =    216   k-points in BZ     NKDIM =    216   number of bands    NBANDS=     18
   number of dos      NEDOS =    301   number of ions     NIONS =      1
   non local maximal  LDIM  =      8   non local SUM 2l+1 LMDIM =     32
   total plane-waves  NPLWV =  13824
   max r-space proj   IRMAX =      1   max aug-charges    IRDMAX=  94949
   dimension x,y,z NGX =    24 NGY =   24 NGZ =   24
   dimension x,y,z NGXF=    48 NGYF=   48 NGZF=   48
   support grid    NGXF=    96 NGYF=   96 NGZF=   96
   ions per type =               1
   NGX,Y,Z   is equivalent  to a cutoff of   9.20,  9.20,  9.20 a.u.
   NGXF,Y,Z  is equivalent  to a cutoff of  18.40, 18.40, 18.40 a.u.

 SYSTEM =  Og_FCC                                  
 POSCAR =  Xe_FCC                                  

 Startparameter for this run:
   NWRITE =      2    write-flag & timer
   PREC   = accura    normal or accurate (medium, high low for compatibility)
   ISTART =      0    job   : 0-new  1-cont  2-samecut
   ICHARG =      2    charge: 1-file 2-atom 10-const
   ISPIN  =      1    spin polarized calculation?
   LNONCOLLINEAR =      T non collinear calculations
   LSORBIT =      T    spin-orbit coupling
   INIWAV =      1    electr: 0-lowe 1-rand  2-diag
   LASPH  =      F    aspherical Exc in radial PAW
   METAGGA=      F    non-selfconsistent MetaGGA calc.

 Electronic Relaxation 1
   ENCUT  =  300.0 eV  22.05 Ry    4.70 a.u.   6.12  6.12  6.12*2*pi/ulx,y,z
   ENINI  =  300.0     initial cutoff
   ENAUG  =  605.9 eV  augmentation charge cutoff
   NELM   =     50;   NELMIN=  2; NELMDL= -5     # of ELM steps 
   EDIFF  = 0.1E-07   stopping-criterion for ELM
   LREAL  =      F    real-space projection
   NLSPLINE    = F    spline interpolate recip. space projectors
   LCOMPAT=      F    compatible to vasp.4.4
   GGA_COMPAT  = F    GGA compatible to vasp.4.4-vasp.4.6
   LMAXPAW     = -100 max onsite density
   LMAXMIX     =    2 max onsite mixed and CHGCAR
   VOSKOWN=      0    Vosko Wilk Nusair interpolation
   ROPT   =    0.00000
 Ionic relaxation
   EDIFFG = 0.1E-04   stopping-criterion for IOM
   NSW    =      1    number of steps for IOM
   NBLOCK =      1;   KBLOCK =      1    inner block; outer block 
   IBRION =     -1    ionic relax: 0-MD 1-quasi-New 2-CG
   NFREE  =      5    steps in history (QN), initial steepest desc. (CG)
   ISIF   =      3    stress and relaxation
   IWAVPR =     10    prediction:  0-non 1-charg 2-wave 3-comb
   ISYM   =      0    0-nonsym 1-usesym 2-fastsym
   LCORR  =      T    Harris-Foulkes like correction to forces

   POTIM  = 0.1000    time-step for ionic-motion
   TEIN   =    0.0    initial temperature
   TEBEG  =    0.0;   TEEND  =   0.0 temperature during run
   SMASS  =  -3.00    Nose mass-parameter (am)
   estimated Nose-frequenzy (Omega)   =  0.10E-29 period in steps =****** mass=  -0.430E-27a.u.
   SCALEE = 1.0000    scale energy and forces
   NPACO  =    256;   APACO  = 16.0  distance and # of slots for P.C.
   PSTRESS=    0.0 pullay stress

  Mass of Ions in am
   POMASS = 131.29
  Ionic Valenz
   ZVAL   =   8.00
  Atomic Wigner-Seitz radii
   RWIGS  =  -1.00
  virtual crystal weights 
   VCA    =   1.00
   NELECT =       8.0000    total number of electrons
   NUPDOWN=      -1.0000    fix difference up-down

 DOS related values:
   EMIN   =  10.00;   EMAX   =-10.00  energy-range for DOS
   EFERMI =   0.00
   ISMEAR =     0;   SIGMA  =   0.00  broadening in eV -4-tet -1-fermi 0-gaus

 Electronic relaxation 2 (details)
   IALGO  =     38    algorithm
   LDIAG  =      T    sub-space diagonalisation (order eigenvalues)
   LSUBROT=      F    optimize rotation matrix (better conditioning)
   TURBO    =      0    0=normal 1=particle mesh
   IRESTART =      0    0=no restart 2=restart with 2 vectors
   NREBOOT  =      0    no. of reboots
   NMIN     =      0    reboot dimension
   EREF     =   0.00    reference energy to select bands
   IMIX   =      4    mixing-type and parameters
     AMIX     =   0.40;   BMIX     =  1.00
     AMIX_MAG =   1.60;   BMIX_MAG =  1.00
     AMIN     =   0.10
     WC   =   100.;   INIMIX=   1;  MIXPRE=   1;  MAXMIX=  50

 Intra band minimization:
   WEIMIN = 0.0000     energy-eigenvalue tresh-hold
   EBREAK =  0.14E-09  absolut break condition
   DEPER  =   0.30     relativ break condition  

   TIME   =   0.40     timestep for ELM

  volume/ion in A,a.u.               =      57.64       389.00
  Fermi-wavevector in a.u.,A,eV,Ry     =   0.847594  1.601720  9.774627  0.718415
  Thomas-Fermi vector in A             =   1.963124
 
 Write flags
   LWAVE        =      T    write WAVECAR
   LDOWNSAMPLE  =      F    k-point downsampling of WAVECAR
   LCHARG       =      F    write CHGCAR
   LVTOT        =      F    write LOCPOT, total local potential
   LVHAR        =      F    write LOCPOT, Hartree potential only
   LELF         =      F    write electronic localiz. function (ELF)
   LORBIT       =      0    0 simple, 1 ext, 2 COOP (PROOUT), +10 PAW based schemes


 Dipole corrections
   LMONO  =      F    monopole corrections only (constant potential shift)
   LDIPOL =      F    correct potential (dipole corrections)
   IDIPOL =      0    1-x, 2-y, 3-z, 4-all directions 
   EPSILON=  1.0000000 bulk dielectric constant

 Exchange correlation treatment:
   GGA     =    --    GGA type
   LEXCH   =     8    internal setting for exchange type
   VOSKOWN=      0    Vosko Wilk Nusair interpolation
   LHFCALC =     F    Hartree Fock is set to
   LHFONE  =     F    Hartree Fock one center treatment
   AEXX    =    0.0000 exact exchange contribution

 Linear response parameters
   LEPSILON=     F    determine dielectric tensor
   LRPA    =     F    only Hartree local field effects (RPA)
   LNABLA  =     F    use nabla operator in PAW spheres
   LVEL    =     F    velocity operator in full k-point grid
   LINTERFAST=   F  fast interpolation
   KINTER  =     0    interpolate to denser k-point grid
   CSHIFT  =0.1000    complex shift for real part using Kramers Kronig
   OMEGAMAX=  -1.0    maximum frequency
   DEG_THRESHOLD= 0.2000000E-02 threshold for treating states as degnerate
   RTIME   =   -0.100 relaxation time in fs
  (WPLASMAI=    0.000 imaginary part of plasma frequency in eV, 0.658/RTIME)
   DFIELD  = 0.0000000 0.0000000 0.0000000 field for delta impulse in time
 
 Orbital magnetization related:
   ORBITALMAG=     F  switch on orbital magnetization
   LCHIMAG   =     F  perturbation theory with respect to B field
   DQ        =  0.001000  dq finite difference perturbation B field
   LLRAUG    =     F  two centre corrections for induced B field



--------------------------------------------------------------------------------------------------------


 Static calculation
 charge density and potential will be updated during run
 non collinear spin polarized calculation
 Variant of blocked Davidson
 Davidson routine will perform the subspace rotation
 perform sub-space diagonalisation
    after iterative eigenvector-optimisation
 modified Broyden-mixing scheme, WC =      100.0
 initial mixing is a Kerker type mixing with AMIX =  0.4000 and BMIX =      1.0000
 Hartree-type preconditioning will be used
 using additional bands           14
 reciprocal scheme for non local part
 use partial core corrections
 calculate Harris-corrections to forces 
   (improved forces if not selfconsistent)
 use gradient corrections 
 use of overlap-Matrix (Vanderbilt PP)
 Gauss-broadening in eV      SIGMA  =   0.00


--------------------------------------------------------------------------------------------------------


  energy-cutoff  :      300.00
  volume of cell :       57.64
      direct lattice vectors                 reciprocal lattice vectors
     4.335995782  0.000000000  0.000000000     0.230627531 -0.133152867 -0.094153295
     2.167997891  3.755082498 -0.000000000     0.000000000  0.266305734 -0.094153295
     2.167997891  1.251694166  3.540325731    -0.000000000  0.000000000  0.282459885

  length of vectors
     4.335995782  4.335995782  4.335995782     0.282459885  0.282459885  0.282459885


 
 k-points in units of 2pi/SCALE and weight: k-points                                
   0.00000000  0.00000000  0.00000000       0.005
   0.03760360 -0.02171045 -0.01535160       0.005
   0.07520719 -0.04342089 -0.03070321       0.005
   0.11281079 -0.06513134 -0.04605481       0.005
  -0.07520719  0.04342089  0.03070321       0.005
  -0.03760360  0.02171045  0.01535160       0.005
   0.00000000  0.04342089 -0.01535160       0.005
   0.03760360  0.02171045 -0.03070321       0.005
   0.07520719  0.00000000 -0.04605481       0.005
   0.11281079 -0.02171045 -0.06140642       0.005
  -0.07520719  0.08684179  0.01535160       0.005
  -0.03760360  0.06513134  0.00000000       0.005
   0.00000000  0.08684179 -0.03070321       0.005
   0.03760360  0.06513134 -0.04605481       0.005
   0.07520719  0.04342089 -0.06140642       0.005
   0.11281079  0.02171045 -0.07675802       0.005
  -0.07520719  0.13026268  0.00000000       0.005
  -0.03760360  0.10855223 -0.01535160       0.005
   0.00000000  0.13026268 -0.04605481       0.005
   0.03760360  0.10855223 -0.06140642       0.005
   0.07520719  0.08684179 -0.07675802       0.005
   0.11281079  0.06513134 -0.09210962       0.005
  -0.07520719  0.17368357 -0.01535160       0.005
  -0.03760360  0.15197313 -0.03070321       0.005
  -0.00000000 -0.08684179  0.03070321       0.005
   0.03760360 -0.10855223  0.01535160       0.005
   0.07520719 -0.13026268 -0.00000000       0.005
   0.11281079 -0.15197313 -0.01535160       0.005
  -0.07520719 -0.04342089  0.06140642       0.005
  -0.03760360 -0.06513134  0.04605481       0.005
  -0.00000000 -0.04342089  0.01535160       0.005
   0.03760360 -0.06513134 -0.00000000       0.005
   0.07520719 -0.08684179 -0.01535160       0.005
   0.11281079 -0.10855223 -0.03070321       0.005
  -0.07520719 -0.00000000  0.04605481       0.005
  -0.03760360 -0.02171045  0.03070321       0.005
  -0.00000000  0.00000000  0.04605481       0.005
   0.03760360 -0.02171045  0.03070321       0.005
   0.07520719 -0.04342089  0.01535160       0.005
   0.11281079 -0.06513134 -0.00000000       0.005
  -0.07520719  0.04342089  0.07675802       0.005
  -0.03760360  0.02171045  0.06140642       0.005
  -0.00000000  0.04342089  0.03070321       0.005
   0.03760360  0.02171045  0.01535160       0.005
   0.07520719  0.00000000  0.00000000       0.005
   0.11281079 -0.02171045 -0.01535160       0.005
  -0.07520719  0.08684179  0.06140642       0.005
  -0.03760360  0.06513134  0.04605481       0.005
  -0.00000000  0.08684179  0.01535160       0.005
   0.03760360  0.06513134  0.00000000       0.005
   0.07520719  0.04342089 -0.01535160       0.005
   0.11281079  0.02171045 -0.03070321       0.005
  -0.07520719  0.13026268  0.04605481       0.005
  -0.03760360  0.10855223  0.03070321       0.005
  -0.00000000  0.13026268  0.00000000       0.005
   0.03760360  0.10855223 -0.01535160       0.005
   0.07520719  0.08684179 -0.03070321       0.005
   0.11281079  0.06513134 -0.04605481       0.005
  -0.07520719  0.17368357  0.03070321       0.005
  -0.03760360  0.15197313  0.01535160       0.005
  -0.00000000 -0.08684179  0.07675802       0.005
   0.03760360 -0.10855223  0.06140642       0.005
   0.07520719 -0.13026268  0.04605481       0.005
   0.11281079 -0.15197313  0.03070321       0.005
  -0.07520719 -0.04342089  0.10746123       0.005
  -0.03760360 -0.06513134  0.09210962       0.005
  -0.00000000 -0.04342089  0.06140642       0.005
   0.03760360 -0.06513134  0.04605481       0.005
   0.07520719 -0.08684179  0.03070321       0.005
   0.11281079 -0.10855223  0.01535160       0.005
  -0.07520719 -0.00000000  0.09210962       0.005
  -0.03760360 -0.02171045  0.07675802       0.005
  -0.00000000  0.00000000  0.09210962       0.005
   0.03760360 -0.02171045  0.07675802       0.005
   0.07520719 -0.04342089  0.06140642       0.005
   0.11281079 -0.06513134  0.04605481       0.005
  -0.07520719  0.04342089  0.12281283       0.005
  -0.03760360  0.02171045  0.10746123       0.005
  -0.00000000  0.04342089  0.07675802       0.005
   0.03760360  0.02171045  0.06140642       0.005
   0.07520719  0.00000000  0.04605481       0.005
   0.11281079 -0.02171045  0.03070321       0.005
  -0.07520719  0.08684179  0.10746123       0.005
  -0.03760360  0.06513134  0.09210962       0.005
  -0.00000000  0.08684179  0.06140642       0.005
   0.03760360  0.06513134  0.04605481       0.005
   0.07520719  0.04342089  0.03070321       0.005
   0.11281079  0.02171045  0.01535160       0.005
  -0.07520719  0.13026268  0.09210962       0.005
  -0.03760360  0.10855223  0.07675802       0.005
  -0.00000000  0.13026268  0.04605481       0.005
   0.03760360  0.10855223  0.03070321       0.005
   0.07520719  0.08684179  0.01535160       0.005
   0.11281079  0.06513134  0.00000000       0.005
  -0.07520719  0.17368357  0.07675802       0.005
  -0.03760360  0.15197313  0.06140642       0.005
  -0.00000000 -0.08684179  0.12281283       0.005
   0.03760360 -0.10855223  0.10746123       0.005
   0.07520719 -0.13026268  0.09210962       0.005
   0.11281079 -0.15197313  0.07675802       0.005
  -0.07520719 -0.04342089  0.15351604       0.005
  -0.03760360 -0.06513134  0.13816444       0.005
  -0.00000000 -0.04342089  0.10746123       0.005
   0.03760360 -0.06513134  0.09210962       0.005
   0.07520719 -0.08684179  0.07675802       0.005
   0.11281079 -0.10855223  0.06140642       0.005
  -0.07520719 -0.00000000  0.13816444       0.005
  -0.03760360 -0.02171045  0.12281283       0.005
  -0.00000000  0.00000000  0.13816444       0.005
   0.03760360 -0.02171045  0.12281283       0.005
   0.07520719 -0.04342089  0.10746123       0.005
   0.11281079 -0.06513134  0.09210962       0.005
  -0.07520719  0.04342089  0.16886765       0.005
  -0.03760360  0.02171045  0.15351604       0.005
  -0.00000000  0.04342089  0.12281283       0.005
   0.03760360  0.02171045  0.10746123       0.005
   0.07520719  0.00000000  0.09210962       0.005
   0.11281079 -0.02171045  0.07675802       0.005
  -0.07520719  0.08684179  0.15351604       0.005
  -0.03760360  0.06513134  0.13816444       0.005
  -0.00000000  0.08684179  0.10746123       0.005
   0.03760360  0.06513134  0.09210962       0.005
   0.07520719  0.04342089  0.07675802       0.005
   0.11281079  0.02171045  0.06140642       0.005
  -0.07520719  0.13026268  0.13816444       0.005
  -0.03760360  0.10855223  0.12281283       0.005
  -0.00000000  0.13026268  0.09210962       0.005
   0.03760360  0.10855223  0.07675802       0.005
   0.07520719  0.08684179  0.06140642       0.005
   0.11281079  0.06513134  0.04605481       0.005
  -0.07520719  0.17368357  0.12281283       0.005
  -0.03760360  0.15197313  0.10746123       0.005
  -0.00000000 -0.08684179  0.16886765       0.005
   0.03760360 -0.10855223  0.15351604       0.005
   0.07520719 -0.13026268  0.13816444       0.005
   0.11281079 -0.15197313  0.12281283       0.005
  -0.07520719 -0.04342089  0.19957085       0.005
  -0.03760360 -0.06513134  0.18421925       0.005
  -0.00000000 -0.04342089  0.15351604       0.005
   0.03760360 -0.06513134  0.13816444       0.005
   0.07520719 -0.08684179  0.12281283       0.005
   0.11281079 -0.10855223  0.10746123       0.005
  -0.07520719 -0.00000000  0.18421925       0.005
  -0.03760360 -0.02171045  0.16886765       0.005
   0.00000000 -0.00000000 -0.09210962       0.005
   0.03760360 -0.02171045 -0.10746123       0.005
   0.07520719 -0.04342089 -0.12281283       0.005
   0.11281079 -0.06513134 -0.13816444       0.005
  -0.07520719  0.04342089 -0.06140642       0.005
  -0.03760360  0.02171045 -0.07675802       0.005
   0.00000000  0.04342089 -0.10746123       0.005
   0.03760360  0.02171045 -0.12281283       0.005
   0.07520719  0.00000000 -0.13816444       0.005
   0.11281079 -0.02171045 -0.15351604       0.005
  -0.07520719  0.08684179 -0.07675802       0.005
  -0.03760360  0.06513134 -0.09210962       0.005
   0.00000000  0.08684179 -0.12281283       0.005
   0.03760360  0.06513134 -0.13816444       0.005
   0.07520719  0.04342089 -0.15351604       0.005
   0.11281079  0.02171045 -0.16886765       0.005
  -0.07520719  0.13026268 -0.09210962       0.005
  -0.03760360  0.10855223 -0.10746123       0.005
   0.00000000  0.13026268 -0.13816444       0.005
   0.03760360  0.10855223 -0.15351604       0.005
   0.07520719  0.08684179 -0.16886765       0.005
   0.11281079  0.06513134 -0.18421925       0.005
  -0.07520719  0.17368357 -0.10746123       0.005
  -0.03760360  0.15197313 -0.12281283       0.005
   0.00000000 -0.08684179 -0.06140642       0.005
   0.03760360 -0.10855223 -0.07675802       0.005
   0.07520719 -0.13026268 -0.09210962       0.005
   0.11281079 -0.15197313 -0.10746123       0.005
  -0.07520719 -0.04342089 -0.03070321       0.005
  -0.03760360 -0.06513134 -0.04605481       0.005
   0.00000000 -0.04342089 -0.07675802       0.005
   0.03760360 -0.06513134 -0.09210962       0.005
   0.07520719 -0.08684179 -0.10746123       0.005
   0.11281079 -0.10855223 -0.12281283       0.005
  -0.07520719 -0.00000000 -0.04605481       0.005
  -0.03760360 -0.02171045 -0.06140642       0.005
   0.00000000 -0.00000000 -0.04605481       0.005
   0.03760360 -0.02171045 -0.06140642       0.005
   0.07520719 -0.04342089 -0.07675802       0.005
   0.11281079 -0.06513134 -0.09210962       0.005
  -0.07520719  0.04342089 -0.01535160       0.005
  -0.03760360  0.02171045 -0.03070321       0.005
   0.00000000  0.04342089 -0.06140642       0.005
   0.03760360  0.02171045 -0.07675802       0.005
   0.07520719  0.00000000 -0.09210962       0.005
   0.11281079 -0.02171045 -0.10746123       0.005
  -0.07520719  0.08684179 -0.03070321       0.005
  -0.03760360  0.06513134 -0.04605481       0.005
   0.00000000  0.08684179 -0.07675802       0.005
   0.03760360  0.06513134 -0.09210962       0.005
   0.07520719  0.04342089 -0.10746123       0.005
   0.11281079  0.02171045 -0.12281283       0.005
  -0.07520719  0.13026268 -0.04605481       0.005
  -0.03760360  0.10855223 -0.06140642       0.005
   0.00000000  0.13026268 -0.09210962       0.005
   0.03760360  0.10855223 -0.10746123       0.005
   0.07520719  0.08684179 -0.12281283       0.005
   0.11281079  0.06513134 -0.13816444       0.005
  -0.07520719  0.17368357 -0.06140642       0.005
  -0.03760360  0.15197313 -0.07675802       0.005
   0.00000000 -0.08684179 -0.01535160       0.005
   0.03760360 -0.10855223 -0.03070321       0.005
   0.07520719 -0.13026268 -0.04605481       0.005
   0.11281079 -0.15197313 -0.06140642       0.005
  -0.07520719 -0.04342089  0.01535160       0.005
  -0.03760360 -0.06513134  0.00000000       0.005
   0.00000000 -0.04342089 -0.03070321       0.005
   0.03760360 -0.06513134 -0.04605481       0.005
   0.07520719 -0.08684179 -0.06140642       0.005
   0.11281079 -0.10855223 -0.07675802       0.005
  -0.07520719 -0.00000000 -0.00000000       0.005
  -0.03760360 -0.02171045 -0.01535160       0.005
 
 k-points in reciprocal lattice and weights: k-points                                
   0.00000000  0.00000000  0.00000000       0.005
   0.16666667  0.00000000  0.00000000       0.005
   0.33333333 -0.00000000 -0.00000000       0.005
   0.50000000 -0.00000000 -0.00000000       0.005
  -0.33333333  0.00000000  0.00000000       0.005
  -0.16666667 -0.00000000 -0.00000000       0.005
   0.00000000  0.16666667  0.00000000       0.005
   0.16666667  0.16666667  0.00000000       0.005
   0.33333333  0.16666667  0.00000000       0.005
   0.50000000  0.16666667  0.00000000       0.005
  -0.33333333  0.16666667  0.00000000       0.005
  -0.16666667  0.16666667  0.00000000       0.005
   0.00000000  0.33333333  0.00000000       0.005
   0.16666667  0.33333333  0.00000000       0.005
   0.33333333  0.33333333  0.00000000       0.005
   0.50000000  0.33333333  0.00000000       0.005
  -0.33333333  0.33333333  0.00000000       0.005
  -0.16666667  0.33333333 -0.00000000       0.005
   0.00000000  0.50000000  0.00000000       0.005
   0.16666667  0.50000000  0.00000000       0.005
   0.33333333  0.50000000  0.00000000       0.005
   0.50000000  0.50000000  0.00000000       0.005
  -0.33333333  0.50000000 -0.00000000       0.005
  -0.16666667  0.50000000 -0.00000000       0.005
   0.00000000 -0.33333333 -0.00000000       0.005
   0.16666667 -0.33333333  0.00000000       0.005
   0.33333333 -0.33333333 -0.00000000       0.005
   0.50000000 -0.33333333 -0.00000000       0.005
  -0.33333333 -0.33333333 -0.00000000       0.005
  -0.16666667 -0.33333333 -0.00000000       0.005
   0.00000000 -0.16666667  0.00000000       0.005
   0.16666667 -0.16666667 -0.00000000       0.005
   0.33333333 -0.16666667  0.00000000       0.005
   0.50000000 -0.16666667  0.00000000       0.005
  -0.33333333 -0.16666667  0.00000000       0.005
  -0.16666667 -0.16666667 -0.00000000       0.005
   0.00000000  0.00000000  0.16666667       0.005
   0.16666667  0.00000000  0.16666667       0.005
   0.33333333 -0.00000000  0.16666667       0.005
   0.50000000 -0.00000000  0.16666667       0.005
  -0.33333333  0.00000000  0.16666667       0.005
  -0.16666667  0.00000000  0.16666667       0.005
   0.00000000  0.16666667  0.16666667       0.005
   0.16666667  0.16666667  0.16666667       0.005
   0.33333333  0.16666667  0.16666667       0.005
   0.50000000  0.16666667  0.16666667       0.005
  -0.33333333  0.16666667  0.16666667       0.005
  -0.16666667  0.16666667  0.16666667       0.005
   0.00000000  0.33333333  0.16666667       0.005
   0.16666667  0.33333333  0.16666667       0.005
   0.33333333  0.33333333  0.16666667       0.005
   0.50000000  0.33333333  0.16666667       0.005
  -0.33333333  0.33333333  0.16666667       0.005
  -0.16666667  0.33333333  0.16666667       0.005
   0.00000000  0.50000000  0.16666667       0.005
   0.16666667  0.50000000  0.16666667       0.005
   0.33333333  0.50000000  0.16666667       0.005
   0.50000000  0.50000000  0.16666667       0.005
  -0.33333333  0.50000000  0.16666667       0.005
  -0.16666667  0.50000000  0.16666667       0.005
   0.00000000 -0.33333333  0.16666667       0.005
   0.16666667 -0.33333333  0.16666667       0.005
   0.33333333 -0.33333333  0.16666667       0.005
   0.50000000 -0.33333333  0.16666667       0.005
  -0.33333333 -0.33333333  0.16666667       0.005
  -0.16666667 -0.33333333  0.16666667       0.005
   0.00000000 -0.16666667  0.16666667       0.005
   0.16666667 -0.16666667  0.16666667       0.005
   0.33333333 -0.16666667  0.16666667       0.005
   0.50000000 -0.16666667  0.16666667       0.005
  -0.33333333 -0.16666667  0.16666667       0.005
  -0.16666667 -0.16666667  0.16666667       0.005
   0.00000000  0.00000000  0.33333333       0.005
   0.16666667 -0.00000000  0.33333333       0.005
   0.33333333 -0.00000000  0.33333333       0.005
   0.50000000 -0.00000000  0.33333333       0.005
  -0.33333333  0.00000000  0.33333333       0.005
  -0.16666667  0.00000000  0.33333333       0.005
   0.00000000  0.16666667  0.33333333       0.005
   0.16666667  0.16666667  0.33333333       0.005
   0.33333333  0.16666667  0.33333333       0.005
   0.50000000  0.16666667  0.33333333       0.005
  -0.33333333  0.16666667  0.33333333       0.005
  -0.16666667  0.16666667  0.33333333       0.005
  -0.00000000  0.33333333  0.33333333       0.005
   0.16666667  0.33333333  0.33333333       0.005
   0.33333333  0.33333333  0.33333333       0.005
   0.50000000  0.33333333  0.33333333       0.005
  -0.33333333  0.33333333  0.33333333       0.005
  -0.16666667  0.33333333  0.33333333       0.005
   0.00000000  0.50000000  0.33333333       0.005
   0.16666667  0.50000000  0.33333333       0.005
   0.33333333  0.50000000  0.33333333       0.005
   0.50000000  0.50000000  0.33333333       0.005
  -0.33333333  0.50000000  0.33333333       0.005
  -0.16666667  0.50000000  0.33333333       0.005
   0.00000000 -0.33333333  0.33333333       0.005
   0.16666667 -0.33333333  0.33333333       0.005
   0.33333333 -0.33333333  0.33333333       0.005
   0.50000000 -0.33333333  0.33333333       0.005
  -0.33333333 -0.33333333  0.33333333       0.005
  -0.16666667 -0.33333333  0.33333333       0.005
   0.00000000 -0.16666667  0.33333333       0.005
   0.16666667 -0.16666667  0.33333333       0.005
   0.33333333 -0.16666667  0.33333333       0.005
   0.50000000 -0.16666667  0.33333333       0.005
  -0.33333333 -0.16666667  0.33333333       0.005
  -0.16666667 -0.16666667  0.33333333       0.005
   0.00000000 -0.00000000  0.50000000       0.005
   0.16666667  0.00000000  0.50000000       0.005
   0.33333333 -0.00000000  0.50000000       0.005
   0.50000000 -0.00000000  0.50000000       0.005
  -0.33333333  0.00000000  0.50000000       0.005
  -0.16666667  0.00000000  0.50000000       0.005
   0.00000000  0.16666667  0.50000000       0.005
   0.16666667  0.16666667  0.50000000       0.005
   0.33333333  0.16666667  0.50000000       0.005
   0.50000000  0.16666667  0.50000000       0.005
  -0.33333333  0.16666667  0.50000000       0.005
  -0.16666667  0.16666667  0.50000000       0.005
  -0.00000000  0.33333333  0.50000000       0.005
   0.16666667  0.33333333  0.50000000       0.005
   0.33333333  0.33333333  0.50000000       0.005
   0.50000000  0.33333333  0.50000000       0.005
  -0.33333333  0.33333333  0.50000000       0.005
  -0.16666667  0.33333333  0.50000000       0.005
   0.00000000  0.50000000  0.50000000       0.005
   0.16666667  0.50000000  0.50000000       0.005
   0.33333333  0.50000000  0.50000000       0.005
   0.50000000  0.50000000  0.50000000       0.005
  -0.33333333  0.50000000  0.50000000       0.005
  -0.16666667  0.50000000  0.50000000       0.005
   0.00000000 -0.33333333  0.50000000       0.005
   0.16666667 -0.33333333  0.50000000       0.005
   0.33333333 -0.33333333  0.50000000       0.005
   0.50000000 -0.33333333  0.50000000       0.005
  -0.33333333 -0.33333333  0.50000000       0.005
  -0.16666667 -0.33333333  0.50000000       0.005
   0.00000000 -0.16666667  0.50000000       0.005
   0.16666667 -0.16666667  0.50000000       0.005
   0.33333333 -0.16666667  0.50000000       0.005
   0.50000000 -0.16666667  0.50000000       0.005
  -0.33333333 -0.16666667  0.50000000       0.005
  -0.16666667 -0.16666667  0.50000000       0.005
  -0.00000000 -0.00000000 -0.33333333       0.005
   0.16666667 -0.00000000 -0.33333333       0.005
   0.33333333 -0.00000000 -0.33333333       0.005
   0.50000000 -0.00000000 -0.33333333       0.005
  -0.33333333  0.00000000 -0.33333333       0.005
  -0.16666667  0.00000000 -0.33333333       0.005
   0.00000000  0.16666667 -0.33333333       0.005
   0.16666667  0.16666667 -0.33333333       0.005
   0.33333333  0.16666667 -0.33333333       0.005
   0.50000000  0.16666667 -0.33333333       0.005
  -0.33333333  0.16666667 -0.33333333       0.005
  -0.16666667  0.16666667 -0.33333333       0.005
  -0.00000000  0.33333333 -0.33333333       0.005
   0.16666667  0.33333333 -0.33333333       0.005
   0.33333333  0.33333333 -0.33333333       0.005
   0.50000000  0.33333333 -0.33333333       0.005
  -0.33333333  0.33333333 -0.33333333       0.005
  -0.16666667  0.33333333 -0.33333333       0.005
  -0.00000000  0.50000000 -0.33333333       0.005
   0.16666667  0.50000000 -0.33333333       0.005
   0.33333333  0.50000000 -0.33333333       0.005
   0.50000000  0.50000000 -0.33333333       0.005
  -0.33333333  0.50000000 -0.33333333       0.005
  -0.16666667  0.50000000 -0.33333333       0.005
   0.00000000 -0.33333333 -0.33333333       0.005
   0.16666667 -0.33333333 -0.33333333       0.005
   0.33333333 -0.33333333 -0.33333333       0.005
   0.50000000 -0.33333333 -0.33333333       0.005
  -0.33333333 -0.33333333 -0.33333333       0.005
  -0.16666667 -0.33333333 -0.33333333       0.005
  -0.00000000 -0.16666667 -0.33333333       0.005
   0.16666667 -0.16666667 -0.33333333       0.005
   0.33333333 -0.16666667 -0.33333333       0.005
   0.50000000 -0.16666667 -0.33333333       0.005
  -0.33333333 -0.16666667 -0.33333333       0.005
  -0.16666667 -0.16666667 -0.33333333       0.005
  -0.00000000 -0.00000000 -0.16666667       0.005
   0.16666667 -0.00000000 -0.16666667       0.005
   0.33333333 -0.00000000 -0.16666667       0.005
   0.50000000 -0.00000000 -0.16666667       0.005
  -0.33333333  0.00000000 -0.16666667       0.005
  -0.16666667 -0.00000000 -0.16666667       0.005
  -0.00000000  0.16666667 -0.16666667       0.005
   0.16666667  0.16666667 -0.16666667       0.005
   0.33333333  0.16666667 -0.16666667       0.005
   0.50000000  0.16666667 -0.16666667       0.005
  -0.33333333  0.16666667 -0.16666667       0.005
  -0.16666667  0.16666667 -0.16666667       0.005
   0.00000000  0.33333333 -0.16666667       0.005
   0.16666667  0.33333333 -0.16666667       0.005
   0.33333333  0.33333333 -0.16666667       0.005
   0.50000000  0.33333333 -0.16666667       0.005
  -0.33333333  0.33333333 -0.16666667       0.005
  -0.16666667  0.33333333 -0.16666667       0.005
   0.00000000  0.50000000 -0.16666667       0.005
   0.16666667  0.50000000 -0.16666667       0.005
   0.33333333  0.50000000 -0.16666667       0.005
   0.50000000  0.50000000 -0.16666667       0.005
  -0.33333333  0.50000000 -0.16666667       0.005
  -0.16666667  0.50000000 -0.16666667       0.005
  -0.00000000 -0.33333333 -0.16666667       0.005
   0.16666667 -0.33333333 -0.16666667       0.005
   0.33333333 -0.33333333 -0.16666667       0.005
   0.50000000 -0.33333333 -0.16666667       0.005
  -0.33333333 -0.33333333 -0.16666667       0.005
  -0.16666667 -0.33333333 -0.16666667       0.005
  -0.00000000 -0.16666667 -0.16666667       0.005
   0.16666667 -0.16666667 -0.16666667       0.005
   0.33333333 -0.16666667 -0.16666667       0.005
   0.50000000 -0.16666667 -0.16666667       0.005
  -0.33333333 -0.16666667 -0.16666667       0.005
  -0.16666667 -0.16666667 -0.16666667       0.005
 
 position of ions in fractional coordinates (direct lattice) 
   0.00000000  0.00000000  0.00000000
 
 position of ions in cartesian coordinates  (Angst):
   0.00000000  0.00000000  0.00000000
 
 Euler angles ALPHA=     0.0000000  BETA=     0.0000000

 transformation matrix from SAXIS to cartesian coordinates
 ---------------------------------------------------------
     1.0000000 m_x     0.0000000 m_y     0.0000000 m_z
     0.0000000 m_x     1.0000000 m_y     0.0000000 m_z
     0.0000000 m_x     0.0000000 m_y     1.0000000 m_z

 transformation matrix from cartesian coordinates to SAXIS
 ---------------------------------------------------------
     1.0000000 m_x     0.0000000 m_y     0.0000000 m_z
     0.0000000 m_x     1.0000000 m_y     0.0000000 m_z
     0.0000000 m_x     0.0000000 m_y     1.0000000 m_z




--------------------------------------------------------------------------------------------------------


 k-point  1 :   0.0000 0.0000 0.0000  plane waves:    1290
 k-point  2 :   0.1667 0.0000 0.0000  plane waves:    1346
 k-point  3 :   0.3333-0.0000-0.0000  plane waves:    1328
 k-point  4 :   0.5000-0.0000-0.0000  plane waves:    1400
 k-point  5 :  -0.3333 0.0000 0.0000  plane waves:    1328
 k-point  6 :  -0.1667-0.0000-0.0000  plane waves:    1346
 k-point  7 :   0.0000 0.1667 0.0000  plane waves:    1346
 k-point  8 :   0.1667 0.1667 0.0000  plane waves:    1362
 k-point  9 :   0.3333 0.1667 0.0000  plane waves:    1360
 k-point 10 :   0.5000 0.1667 0.0000  plane waves:    1356
 k-point 11 :  -0.3333 0.1667 0.0000  plane waves:    1354
 k-point 12 :  -0.1667 0.1667 0.0000  plane waves:    1348
 k-point 13 :   0.0000 0.3333 0.0000  plane waves:    1328
 k-point 14 :   0.1667 0.3333 0.0000  plane waves:    1360
 k-point 15 :   0.3333 0.3333 0.0000  plane waves:    1360
 k-point 16 :   0.5000 0.3333 0.0000  plane waves:    1372
 k-point 17 :  -0.3333 0.3333 0.0000  plane waves:    1360
 k-point 18 :  -0.1667 0.3333-0.0000  plane waves:    1354
 k-point 19 :   0.0000 0.5000 0.0000  plane waves:    1400
 k-point 20 :   0.1667 0.5000 0.0000  plane waves:    1356
 k-point 21 :   0.3333 0.5000 0.0000  plane waves:    1372
 k-point 22 :   0.5000 0.5000 0.0000  plane waves:    1384
 k-point 23 :  -0.3333 0.5000-0.0000  plane waves:    1372
 k-point 24 :  -0.1667 0.5000-0.0000  plane waves:    1356
 k-point 25 :   0.0000-0.3333-0.0000  plane waves:    1328
 k-point 26 :   0.1667-0.3333 0.0000  plane waves:    1354
 k-point 27 :   0.3333-0.3333-0.0000  plane waves:    1360
 k-point 28 :   0.5000-0.3333-0.0000  plane waves:    1372
 k-point 29 :  -0.3333-0.3333-0.0000  plane waves:    1360
 k-point 30 :  -0.1667-0.3333-0.0000  plane waves:    1360
 k-point 31 :   0.0000-0.1667 0.0000  plane waves:    1346
 k-point 32 :   0.1667-0.1667-0.0000  plane waves:    1348
 k-point 33 :   0.3333-0.1667 0.0000  plane waves:    1354
 k-point 34 :   0.5000-0.1667 0.0000  plane waves:    1356
 k-point 35 :  -0.3333-0.1667 0.0000  plane waves:    1360
 k-point 36 :  -0.1667-0.1667-0.0000  plane waves:    1362
 k-point 37 :   0.0000 0.0000 0.1667  plane waves:    1346
 k-point 38 :   0.1667 0.0000 0.1667  plane waves:    1362
 k-point 39 :   0.3333-0.0000 0.1667  plane waves:    1360
 k-point 40 :   0.5000-0.0000 0.1667  plane waves:    1356
 k-point 41 :  -0.3333 0.0000 0.1667  plane waves:    1354
 k-point 42 :  -0.1667 0.0000 0.1667  plane waves:    1348
 k-point 43 :   0.0000 0.1667 0.1667  plane waves:    1362
 k-point 44 :   0.1667 0.1667 0.1667  plane waves:    1346
 k-point 45 :   0.3333 0.1667 0.1667  plane waves:    1348
 k-point 46 :   0.5000 0.1667 0.1667  plane waves:    1354
 k-point 47 :  -0.3333 0.1667 0.1667  plane waves:    1356
 k-point 48 :  -0.1667 0.1667 0.1667  plane waves:    1360
 k-point 49 :   0.0000 0.3333 0.1667  plane waves:    1360
 k-point 50 :   0.1667 0.3333 0.1667  plane waves:    1348
 k-point 51 :   0.3333 0.3333 0.1667  plane waves:    1360
 k-point 52 :   0.5000 0.3333 0.1667  plane waves:    1352
 k-point 53 :  -0.3333 0.3333 0.1667  plane waves:    1384
 k-point 54 :  -0.1667 0.3333 0.1667  plane waves:    1352
 k-point 55 :   0.0000 0.5000 0.1667  plane waves:    1356
 k-point 56 :   0.1667 0.5000 0.1667  plane waves:    1354
 k-point 57 :   0.3333 0.5000 0.1667  plane waves:    1352
 k-point 58 :   0.5000 0.5000 0.1667  plane waves:    1372
 k-point 59 :  -0.3333 0.5000 0.1667  plane waves:    1380
 k-point 60 :  -0.1667 0.5000 0.1667  plane waves:    1384
 k-point 61 :   0.0000-0.3333 0.1667  plane waves:    1354
 k-point 62 :   0.1667-0.3333 0.1667  plane waves:    1356
 k-point 63 :   0.3333-0.3333 0.1667  plane waves:    1384
 k-point 64 :   0.5000-0.3333 0.1667  plane waves:    1380
 k-point 65 :  -0.3333-0.3333 0.1667  plane waves:    1372
 k-point 66 :  -0.1667-0.3333 0.1667  plane waves:    1352
 k-point 67 :   0.0000-0.1667 0.1667  plane waves:    1348
 k-point 68 :   0.1667-0.1667 0.1667  plane waves:    1360
 k-point 69 :   0.3333-0.1667 0.1667  plane waves:    1352
 k-point 70 :   0.5000-0.1667 0.1667  plane waves:    1384
 k-point 71 :  -0.3333-0.1667 0.1667  plane waves:    1352
 k-point 72 :  -0.1667-0.1667 0.1667  plane waves:    1360
 k-point 73 :   0.0000 0.0000 0.3333  plane waves:    1328
 k-point 74 :   0.1667-0.0000 0.3333  plane waves:    1360
 k-point 75 :   0.3333-0.0000 0.3333  plane waves:    1360
 k-point 76 :   0.5000-0.0000 0.3333  plane waves:    1372
 k-point 77 :  -0.3333 0.0000 0.3333  plane waves:    1360
 k-point 78 :  -0.1667 0.0000 0.3333  plane waves:    1354
 k-point 79 :   0.0000 0.1667 0.3333  plane waves:    1360
 k-point 80 :   0.1667 0.1667 0.3333  plane waves:    1348
 k-point 81 :   0.3333 0.1667 0.3333  plane waves:    1360
 k-point 82 :   0.5000 0.1667 0.3333  plane waves:    1352
 k-point 83 :  -0.3333 0.1667 0.3333  plane waves:    1384
 k-point 84 :  -0.1667 0.1667 0.3333  plane waves:    1352
 k-point 85 :  -0.0000 0.3333 0.3333  plane waves:    1360
 k-point 86 :   0.1667 0.3333 0.3333  plane waves:    1360
 k-point 87 :   0.3333 0.3333 0.3333  plane waves:    1328
 k-point 88 :   0.5000 0.3333 0.3333  plane waves:    1354
 k-point 89 :  -0.3333 0.3333 0.3333  plane waves:    1360
 k-point 90 :  -0.1667 0.3333 0.3333  plane waves:    1372
 k-point 91 :   0.0000 0.5000 0.3333  plane waves:    1372
 k-point 92 :   0.1667 0.5000 0.3333  plane waves:    1352
 k-point 93 :   0.3333 0.5000 0.3333  plane waves:    1354
 k-point 94 :   0.5000 0.5000 0.3333  plane waves:    1356
 k-point 95 :  -0.3333 0.5000 0.3333  plane waves:    1384
 k-point 96 :  -0.1667 0.5000 0.3333  plane waves:    1380
 k-point 97 :   0.0000-0.3333 0.3333  plane waves:    1360
 k-point 98 :   0.1667-0.3333 0.3333  plane waves:    1384
 k-point 99 :   0.3333-0.3333 0.3333  plane waves:    1360
 k-point ** :   0.5000-0.3333 0.3333  plane waves:    1384
 k-point ** :  -0.3333-0.3333 0.3333  plane waves:    1360
 k-point ** :  -0.1667-0.3333 0.3333  plane waves:    1384
 k-point ** :   0.0000-0.1667 0.3333  plane waves:    1354
 k-point ** :   0.1667-0.1667 0.3333  plane waves:    1352
 k-point ** :   0.3333-0.1667 0.3333  plane waves:    1372
 k-point ** :   0.5000-0.1667 0.3333  plane waves:    1380
 k-point ** :  -0.3333-0.1667 0.3333  plane waves:    1384
 k-point ** :  -0.1667-0.1667 0.3333  plane waves:    1356
 k-point ** :   0.0000-0.0000 0.5000  plane waves:    1400
 k-point ** :   0.1667 0.0000 0.5000  plane waves:    1356
 k-point ** :   0.3333-0.0000 0.5000  plane waves:    1372
 k-point ** :   0.5000-0.0000 0.5000  plane waves:    1384
 k-point ** :  -0.3333 0.0000 0.5000  plane waves:    1372
 k-point ** :  -0.1667 0.0000 0.5000  plane waves:    1356
 k-point ** :   0.0000 0.1667 0.5000  plane waves:    1356
 k-point ** :   0.1667 0.1667 0.5000  plane waves:    1354
 k-point ** :   0.3333 0.1667 0.5000  plane waves:    1352
 k-point ** :   0.5000 0.1667 0.5000  plane waves:    1372
 k-point ** :  -0.3333 0.1667 0.5000  plane waves:    1380
 k-point ** :  -0.1667 0.1667 0.5000  plane waves:    1384
 k-point ** :  -0.0000 0.3333 0.5000  plane waves:    1372
 k-point ** :   0.1667 0.3333 0.5000  plane waves:    1352
 k-point ** :   0.3333 0.3333 0.5000  plane waves:    1354
 k-point ** :   0.5000 0.3333 0.5000  plane waves:    1356
 k-point ** :  -0.3333 0.3333 0.5000  plane waves:    1384
 k-point ** :  -0.1667 0.3333 0.5000  plane waves:    1380
 k-point ** :   0.0000 0.5000 0.5000  plane waves:    1384
 k-point ** :   0.1667 0.5000 0.5000  plane waves:    1372
 k-point ** :   0.3333 0.5000 0.5000  plane waves:    1356
 k-point ** :   0.5000 0.5000 0.5000  plane waves:    1400
 k-point ** :  -0.3333 0.5000 0.5000  plane waves:    1356
 k-point ** :  -0.1667 0.5000 0.5000  plane waves:    1372
 k-point ** :   0.0000-0.3333 0.5000  plane waves:    1372
 k-point ** :   0.1667-0.3333 0.5000  plane waves:    1380
 k-point ** :   0.3333-0.3333 0.5000  plane waves:    1384
 k-point ** :   0.5000-0.3333 0.5000  plane waves:    1356
 k-point ** :  -0.3333-0.3333 0.5000  plane waves:    1354
 k-point ** :  -0.1667-0.3333 0.5000  plane waves:    1352
 k-point ** :   0.0000-0.1667 0.5000  plane waves:    1356
 k-point ** :   0.1667-0.1667 0.5000  plane waves:    1384
 k-point ** :   0.3333-0.1667 0.5000  plane waves:    1380
 k-point ** :   0.5000-0.1667 0.5000  plane waves:    1372
 k-point ** :  -0.3333-0.1667 0.5000  plane waves:    1352
 k-point ** :  -0.1667-0.1667 0.5000  plane waves:    1354
 k-point ** :  -0.0000-0.0000-0.3333  plane waves:    1328
 k-point ** :   0.1667-0.0000-0.3333  plane waves:    1354
 k-point ** :   0.3333-0.0000-0.3333  plane waves:    1360
 k-point ** :   0.5000-0.0000-0.3333  plane waves:    1372
 k-point ** :  -0.3333 0.0000-0.3333  plane waves:    1360
 k-point ** :  -0.1667 0.0000-0.3333  plane waves:    1360
 k-point ** :   0.0000 0.1667-0.3333  plane waves:    1354
 k-point ** :   0.1667 0.1667-0.3333  plane waves:    1356
 k-point ** :   0.3333 0.1667-0.3333  plane waves:    1384
 k-point ** :   0.5000 0.1667-0.3333  plane waves:    1380
 k-point ** :  -0.3333 0.1667-0.3333  plane waves:    1372
 k-point ** :  -0.1667 0.1667-0.3333  plane waves:    1352
 k-point ** :  -0.0000 0.3333-0.3333  plane waves:    1360
 k-point ** :   0.1667 0.3333-0.3333  plane waves:    1384
 k-point ** :   0.3333 0.3333-0.3333  plane waves:    1360
 k-point ** :   0.5000 0.3333-0.3333  plane waves:    1384
 k-point ** :  -0.3333 0.3333-0.3333  plane waves:    1360
 k-point ** :  -0.1667 0.3333-0.3333  plane waves:    1384
 k-point ** :  -0.0000 0.5000-0.3333  plane waves:    1372
 k-point ** :   0.1667 0.5000-0.3333  plane waves:    1380
 k-point ** :   0.3333 0.5000-0.3333  plane waves:    1384
 k-point ** :   0.5000 0.5000-0.3333  plane waves:    1356
 k-point ** :  -0.3333 0.5000-0.3333  plane waves:    1354
 k-point ** :  -0.1667 0.5000-0.3333  plane waves:    1352
 k-point ** :   0.0000-0.3333-0.3333  plane waves:    1360
 k-point ** :   0.1667-0.3333-0.3333  plane waves:    1372
 k-point ** :   0.3333-0.3333-0.3333  plane waves:    1360
 k-point ** :   0.5000-0.3333-0.3333  plane waves:    1354
 k-point ** :  -0.3333-0.3333-0.3333  plane waves:    1328
 k-point ** :  -0.1667-0.3333-0.3333  plane waves:    1360
 k-point ** :  -0.0000-0.1667-0.3333  plane waves:    1360
 k-point ** :   0.1667-0.1667-0.3333  plane waves:    1352
 k-point ** :   0.3333-0.1667-0.3333  plane waves:    1384
 k-point ** :   0.5000-0.1667-0.3333  plane waves:    1352
 k-point ** :  -0.3333-0.1667-0.3333  plane waves:    1360
 k-point ** :  -0.1667-0.1667-0.3333  plane waves:    1348
 k-point ** :  -0.0000-0.0000-0.1667  plane waves:    1346
 k-point ** :   0.1667-0.0000-0.1667  plane waves:    1348
 k-point ** :   0.3333-0.0000-0.1667  plane waves:    1354
 k-point ** :   0.5000-0.0000-0.1667  plane waves:    1356
 k-point ** :  -0.3333 0.0000-0.1667  plane waves:    1360
 k-point ** :  -0.1667-0.0000-0.1667  plane waves:    1362
 k-point ** :  -0.0000 0.1667-0.1667  plane waves:    1348
 k-point ** :   0.1667 0.1667-0.1667  plane waves:    1360
 k-point ** :   0.3333 0.1667-0.1667  plane waves:    1352
 k-point ** :   0.5000 0.1667-0.1667  plane waves:    1384
 k-point ** :  -0.3333 0.1667-0.1667  plane waves:    1352
 k-point ** :  -0.1667 0.1667-0.1667  plane waves:    1360
 k-point ** :   0.0000 0.3333-0.1667  plane waves:    1354
 k-point ** :   0.1667 0.3333-0.1667  plane waves:    1352
 k-point ** :   0.3333 0.3333-0.1667  plane waves:    1372
 k-point ** :   0.5000 0.3333-0.1667  plane waves:    1380
 k-point ** :  -0.3333 0.3333-0.1667  plane waves:    1384
 k-point ** :  -0.1667 0.3333-0.1667  plane waves:    1356
 k-point ** :   0.0000 0.5000-0.1667  plane waves:    1356
 k-point ** :   0.1667 0.5000-0.1667  plane waves:    1384
 k-point ** :   0.3333 0.5000-0.1667  plane waves:    1380
 k-point ** :   0.5000 0.5000-0.1667  plane waves:    1372
 k-point ** :  -0.3333 0.5000-0.1667  plane waves:    1352
 k-point ** :  -0.1667 0.5000-0.1667  plane waves:    1354
 k-point ** :  -0.0000-0.3333-0.1667  plane waves:    1360
 k-point ** :   0.1667-0.3333-0.1667  plane waves:    1352
 k-point ** :   0.3333-0.3333-0.1667  plane waves:    1384
 k-point ** :   0.5000-0.3333-0.1667  plane waves:    1352
 k-point ** :  -0.3333-0.3333-0.1667  plane waves:    1360
 k-point ** :  -0.1667-0.3333-0.1667  plane waves:    1348
 k-point ** :  -0.0000-0.1667-0.1667  plane waves:    1362
 k-point ** :   0.1667-0.1667-0.1667  plane waves:    1360
 k-point ** :   0.3333-0.1667-0.1667  plane waves:    1356
 k-point ** :   0.5000-0.1667-0.1667  plane waves:    1354
 k-point ** :  -0.3333-0.1667-0.1667  plane waves:    1348
 k-point ** :  -0.1667-0.1667-0.1667  plane waves:    1346

 maximum and minimum number of plane-waves per node :       374      310

 maximum number of plane-waves:      1400
 maximum index in each direction: 
   IXMAX=    6   IYMAX=    6   IZMAX=    6
   IXMIN=   -6   IYMIN=   -6   IZMIN=   -6


 parallel 3D FFT for wavefunctions:
    minimum data exchange during FFTs selected (reduces bandwidth)
 parallel 3D FFT for charge:
    minimum data exchange during FFTs selected (reduces bandwidth)


 total amount of memory used by VASP MPI-rank0    62349. kBytes
=======================================================================

   base      :      30000. kBytes
   nonl-proj :      10066. kBytes
   fftplans  :       4132. kBytes
   grid      :       4643. kBytes
   one-center:        196. kBytes
   wavefun   :      13312. kBytes
 
     INWAV:  cpu time    0.0000: real time    0.0000
 Broyden mixing: mesh for mixing (old mesh)
   NGX = 13   NGY = 13   NGZ = 13
  (NGX  = 48   NGY  = 48   NGZ  = 48)
  gives a total of   2197 points

 initial charge density was supplied:
 charge density of overlapping atoms calculated
 number of electron       8.0000000 magnetization       1.0000000      1.0000000      1.0000000
 keeping initial charge density in first step


--------------------------------------------------------------------------------------------------------


 Maximum index for augmentation-charges        11463 (set IRDMAX)


--------------------------------------------------------------------------------------------------------


 First call to EWALD:  gamma=   0.459
 Maximum number of real-space cells 3x 3x 3
 Maximum number of reciprocal cells 3x 3x 3

    FEWALD:  cpu time    0.0021: real time    0.0021


--------------------------------------- Iteration      1(   1)  ---------------------------------------


    POTLOK:  cpu time    0.0528: real time    0.0533
    SETDIJ:  cpu time    0.0902: real time    0.0902
     EDDAV:  cpu time    2.2097: real time    2.2085
       DOS:  cpu time    0.0014: real time    0.0014
    --------------------------------------------
      LOOP:  cpu time    2.3542: real time    2.3534

 eigenvalue-minimisations  :  7776
 total energy-change (2. order) :-0.5398987E+01  (-0.2109205E+03)
 number of electron       8.0000000 magnetization       1.0000000      1.0000000      1.0000000
 augmentation part        8.0000000 magnetization       1.0000000      1.0000000      1.0000000

 Free energy of the ion-electron system (eV)
  ---------------------------------------------------
  alpha Z        PSCENC =        22.61767795
  Ewald energy   TEWEN  =      -344.53113738
  -Hartree energ DENC   =       -64.52406707
  -exchange      EXHF   =         0.00000000
  -V(xc)+E(xc)   XCENC  =       -57.35687117
  PAW double counting   =       413.00176589     -372.52262559
  entropy T*S    EENTRO =        -0.00000148
  eigenvalues    EBANDS =       -31.58650874
  atomic energy  EATOM  =       429.50278051
  Solvation  Ediel_sol  =         0.00000000
  ---------------------------------------------------
  free energy    TOTEN  =        -5.39898709 eV

  energy without entropy =       -5.39898561  energy(sigma->0) =       -5.39898635


--------------------------------------------------------------------------------------------------------




--------------------------------------- Iteration      1(   2)  ---------------------------------------


     EDDAV:  cpu time    2.6881: real time    2.6874
       DOS:  cpu time    0.0007: real time    0.0007
    --------------------------------------------
      LOOP:  cpu time    2.6888: real time    2.6880

 eigenvalue-minimisations  : 10854
 total energy-change (2. order) :-0.2961374E+02  (-0.2749275E+02)
 number of electron       8.0000000 magnetization       1.0000000      1.0000000      1.0000000
 augmentation part        8.0000000 magnetization       1.0000000      1.0000000      1.0000000

 Free energy of the ion-electron system (eV)
  ---------------------------------------------------
  alpha Z        PSCENC =        22.61767795
  Ewald energy   TEWEN  =      -344.53113738
  -Hartree energ DENC   =       -64.52406707
  -exchange      EXHF   =         0.00000000
  -V(xc)+E(xc)   XCENC  =       -57.35687117
  PAW double counting   =       413.00176589     -372.52262559
  entropy T*S    EENTRO =         0.00000000
  eigenvalues    EBANDS =       -61.20025416
  atomic energy  EATOM  =       429.50278051
  Solvation  Ediel_sol  =         0.00000000
  ---------------------------------------------------
  free energy    TOTEN  =       -35.01273103 eV

  energy without entropy =      -35.01273103  energy(sigma->0) =      -35.01273103


--------------------------------------------------------------------------------------------------------




--------------------------------------- Iteration      1(   3)  ---------------------------------------


     EDDAV:  cpu time    2.4751: real time    2.4735
       DOS:  cpu time    0.0006: real time    0.0006
    --------------------------------------------
      LOOP:  cpu time    2.4757: real time    2.4741

 eigenvalue-minimisations  :  9518
 total energy-change (2. order) :-0.2372161E+01  (-0.2363253E+01)
 number of electron       8.0000000 magnetization       1.0000000      1.0000000      1.0000000
 augmentation part        8.0000000 magnetization       1.0000000      1.0000000      1.0000000

 Free energy of the ion-electron system (eV)
  ---------------------------------------------------
  alpha Z        PSCENC =        22.61767795
  Ewald energy   TEWEN  =      -344.53113738
  -Hartree energ DENC   =       -64.52406707
  -exchange      EXHF   =         0.00000000
  -V(xc)+E(xc)   XCENC  =       -57.35687117
  PAW double counting   =       413.00176589     -372.52262559
  entropy T*S    EENTRO =         0.00000000
  eigenvalues    EBANDS =       -63.57241471
  atomic energy  EATOM  =       429.50278051
  Solvation  Ediel_sol  =         0.00000000
  ---------------------------------------------------
  free energy    TOTEN  =       -37.38489157 eV

  energy without entropy =      -37.38489157  energy(sigma->0) =      -37.38489157


--------------------------------------------------------------------------------------------------------




--------------------------------------- Iteration      1(   4)  ---------------------------------------


     EDDAV:  cpu time    2.4553: real time    2.4536
       DOS:  cpu time    0.0010: real time    0.0006
    --------------------------------------------
      LOOP:  cpu time    2.4563: real time    2.4541

 eigenvalue-minimisations  :  9552
 total energy-change (2. order) :-0.2141688E-01  (-0.2141370E-01)
 number of electron       8.0000000 magnetization       1.0000000      1.0000000      1.0000000
 augmentation part        8.0000000 magnetization       1.0000000      1.0000000      1.0000000

 Free energy of the ion-electron system (eV)
  ---------------------------------------------------
  alpha Z        PSCENC =        22.61767795
  Ewald energy   TEWEN  =      -344.53113738
  -Hartree energ DENC   =       -64.52406707
  -exchange      EXHF   =         0.00000000
  -V(xc)+E(xc)   XCENC  =       -57.35687117
  PAW double counting   =       413.00176589     -372.52262559
  entropy T*S    EENTRO =         0.00000000
  eigenvalues    EBANDS =       -63.59383159
  atomic energy  EATOM  =       429.50278051
  Solvation  Ediel_sol  =         0.00000000
  ---------------------------------------------------
  free energy    TOTEN  =       -37.40630845 eV

  energy without entropy =      -37.40630845  energy(sigma->0) =      -37.40630845


--------------------------------------------------------------------------------------------------------




--------------------------------------- Iteration      1(   5)  ---------------------------------------


     EDDAV:  cpu time    2.4483: real time    2.4470
       DOS:  cpu time    0.0006: real time    0.0006
    CHARGE:  cpu time    0.5983: real time    0.5980
    MIXING:  cpu time    0.0041: real time    0.0041
    --------------------------------------------
      LOOP:  cpu time    3.0513: real time    3.0497

 eigenvalue-minimisations  :  9350
 total energy-change (2. order) :-0.1307887E-03  (-0.1307861E-03)
 number of electron       8.0000000 magnetization      -0.2137568     -0.2137568     -0.2137568
 augmentation part       -1.3262230 magnetization      -0.2203580     -0.2203513     -0.2203518

 Broyden mixing:
  rms(total) = 0.43204E+00    rms(broyden)= 0.43204E+00
  rms(prec ) = 0.43899E+00
[...]
    0.000000    6.636834    6.637368    6.636677    0.039392    0.027055    0.028228
    0.348698    0.665250    0.665304    0.665234    0.003944    0.002709    0.002826
    0.697396    0.335018    0.335045    0.335010    0.001978    0.001359    0.001418
    1.046094    0.226047    0.226065    0.226042    0.001326    0.000911    0.000951
    1.394792    0.172442    0.172455    0.172438    0.001003    0.000689    0.000720
    1.743490    0.141043    0.141054    0.141040    0.000810    0.000557    0.000582
    2.092188    0.120818    0.120827    0.120815    0.000684    0.000471    0.000492
    2.440886    0.107058    0.107065    0.107055    0.000595    0.000410    0.000428
    2.789584    0.097433    0.097440    0.097431    0.000530    0.000365    0.000382
    3.138282    0.090680    0.090686    0.090677    0.000481    0.000331    0.000347
    3.486980    0.086074    0.086079    0.086071    0.000443    0.000305    0.000320
    3.835678    0.083203    0.083208    0.083201    0.000413    0.000285    0.000299
    4.184376    0.081859    0.081864    0.081857    0.000389    0.000269    0.000283
    4.533074    0.081996    0.082000    0.081994    0.000371    0.000257    0.000270
    4.881771    0.083740    0.083744    0.083738    0.000357    0.000247    0.000260
    5.230469    0.087476    0.087480    0.087474    0.000346    0.000240    0.000253
    5.579167    0.094161    0.094164    0.094158    0.000338    0.000235    0.000248
    5.927865    0.106870    0.106873    0.106867    0.000333    0.000232    0.000245
    6.276563    0.151123    0.151125    0.151120    0.000330    0.000231    0.000244
    6.625261    0.203174    0.203177    0.203171    0.000330    0.000231    0.000245
    6.973959    0.246069    0.246072    0.246066    0.000333    0.000233    0.000248
    7.322657    0.706060    0.706067    0.706061    0.000336    0.000235    0.000252
    7.671355    0.810939    0.810945    0.810936    0.000347    0.000243    0.000261
    8.020053    1.175829    1.175866    1.175826    0.000397    0.000239    0.000299
    8.368751    1.838410    1.838411    1.838407    0.000368    0.000262    0.000282
    8.717449    2.971027    2.971028    2.971014    0.000402    0.000277    0.000308
    9.066147    5.200515    5.200465    5.200385    0.000595    0.000259    0.000440
    9.414845    2.717161    2.717175    2.717163    0.000438    0.000335    0.000348
    9.763543    2.954460    2.954505    2.954508    0.000437    0.000322    0.000341
   10.112241    5.430456    5.430443    5.430440    0.000547    0.000415    0.000424
   10.460939    3.362683    3.362668    3.362659    0.000623    0.000468    0.000487
   10.809637    3.801613    3.801590    3.801576    0.000733    0.000546    0.000574
   11.158335    2.999941    2.999902    2.999887    0.000881    0.000666    0.000692
   11.507033    3.145266    3.145207    3.145188    0.001104    0.000839    0.000870
   11.855731    3.258568    3.258431    3.258392    0.001512    0.001158    0.001192
   12.204429    2.684215    2.683935    2.683869    0.002258    0.001750    0.001765
   12.553127    2.147032    2.146049    2.145853    0.004455    0.003333    0.003339
   12.901825    1.818169    1.806320    1.804149    0.019467    0.004841    0.011738
   13.250523    1.202087    1.196446    1.193109   -0.018750   -0.008514   -0.019403
   13.599221    1.488770    1.487662    1.487752   -0.010330   -0.008084   -0.009342
   13.947919    0.963995    0.964397    0.964681   -0.008549   -0.006940   -0.007922
   14.296617    0.829529    0.834675    0.837688   -0.012722   -0.008798   -0.011564
   14.645314    0.604385    0.609066    0.610313    0.004617   -0.002021    0.001272
   14.994012    0.459940    0.461555    0.460790    0.003165    0.002060    0.001080
   15.342710    0.654125    0.656014    0.654793    0.000670    0.003067    0.001895
   15.691408    0.313497    0.314255    0.313652    0.000985    0.002059    0.002338
   16.040106    0.154632    0.161087    0.156131   -0.003821    0.004327    0.000659
   16.388804    0.178826    0.179916    0.178942   -0.002630   -0.000136   -0.003135
   16.737502    0.076902    0.077717    0.077227    0.000957    0.000487    0.000866
   17.086200    0.027065    0.027285    0.027149    0.000057    0.000147   -0.000009
   17.434898    0.015528    0.015783    0.015642   -0.000385    0.000134   -0.000430
   17.783596    0.021301    0.023249    0.022266    0.001034    0.001910    0.000935
   18.132294    0.009337    0.009461    0.009394    0.000428    0.000183    0.000517
   18.480992    0.006641    0.006690    0.006662    0.000248    0.000099    0.000291
   18.829690    0.005363    0.005391    0.005375    0.000169    0.000069    0.000194
   19.178388    0.004476    0.004494    0.004484    0.000124    0.000052    0.000141
   19.527086    0.003813    0.003826    0.003819    0.000095    0.000041    0.000108
   19.875784    0.003318    0.003328    0.003322    0.000075    0.000033    0.000086
   20.224482    0.003078    0.003085    0.003081    0.000060    0.000027    0.000070
   20.573180    0.003321    0.003327    0.003324    0.000049    0.000023    0.000058
   20.921878    0.003475    0.003480    0.003477    0.000041    0.000019    0.000048
   21.270576    0.005170    0.005174    0.005172    0.000034    0.000016    0.000041
   21.619274    0.004209    0.004212    0.004210    0.000029    0.000014    0.000035
   21.967972    0.003241    0.003244    0.003243    0.000025    0.000012    0.000030
   22.316670    0.002632    0.002634    0.002633    0.000021    0.000010    0.000026
   22.665368    0.004870    0.004872    0.004871    0.000018    0.000009    0.000023
   23.014066    0.002901    0.002903    0.002901    0.000016    0.000008    0.000020
   23.362764    0.001902    0.001903    0.001903    0.000014    0.000007    0.000018
   23.711462    0.004038    0.004040    0.004039    0.000012    0.000006    0.000016
   24.060160    0.002899    0.002900    0.002899    0.000010    0.000005    0.000014
   24.408857    0.002592    0.002593    0.002593    0.000009    0.000005    0.000013
   24.757555    0.001466    0.001467    0.001467    0.000008    0.000004    0.000012
   25.106253    0.001050    0.001051    0.001050    0.000007    0.000004    0.000010
   25.454951    0.001169    0.001170    0.001170    0.000006    0.000003    0.000010
   25.803649    0.000730    0.000731    0.000730    0.000006    0.000003    0.000009
   26.152347    0.001113    0.001114    0.001114    0.000004    0.000002    0.000007
   26.501045    0.000721    0.000722    0.000722    0.000004    0.000002    0.000007
   26.849743    0.000497    0.000498    0.000497    0.000004    0.000002    0.000006
   27.198441    0.000488    0.000489    0.000488    0.000003    0.000002    0.000006
   27.547139    0.000679    0.000679    0.000679    0.000003    0.000001    0.000005
   27.895837    0.000387    0.000387    0.000387    0.000003    0.000001    0.000005
   28.244535    0.000382    0.000382    0.000382    0.000002    0.000001    0.000004
   28.593233    0.000400    0.000399    0.000400    0.000002   -0.000000    0.000005
   28.941931    0.000294    0.000294    0.000294    0.000002    0.000001    0.000004
   29.290629    0.000248    0.000248    0.000248    0.000002    0.000001    0.000004
   29.639327    0.000227    0.000227    0.000227    0.000001    0.000001    0.000003
   29.988025    0.000210    0.000210    0.000210    0.000001    0.000001    0.000003
   30.336723    0.000195    0.000196    0.000195    0.000001    0.000000    0.000003
   30.685421    0.000182    0.000182    0.000182    0.000001    0.000000    0.000003
   31.034119    0.000170    0.000170    0.000170    0.000001    0.000000    0.000003
   31.382817    0.000159    0.000160    0.000159    0.000001    0.000000    0.000002
   31.731515    0.000149    0.000150    0.000149    0.000001    0.000000    0.000002
   32.080213    0.000140    0.000140    0.000140    0.000001    0.000000    0.000002
   32.428911    0.000132    0.000132    0.000132    0.000000    0.000000    0.000002
   32.777609    0.000124    0.000124    0.000124    0.000000    0.000000    0.000002
   33.126307    0.000117    0.000117    0.000117    0.000000    0.000000    0.000002
   33.475005    0.000110    0.000110    0.000110    0.000000    0.000000    0.000002
   33.823703    0.000104    0.000104    0.000104    0.000000    0.000000    0.000002
   34.172400    0.000098    0.000098    0.000098    0.000000   -0.000000    0.000001
   34.521098    0.000092    0.000092    0.000092    0.000000   -0.000000    0.000001

  frequency dependent      REAL DIELECTRIC FUNCTION (independent particle, no local field effects) current-current (2nd set in vasprun.xml)
     E(ev)        X           Y           Z          XY          YZ          ZX
  --------------------------------------------------------------------------------------------------------------
    0.000000    2.156658    2.156752    2.156631    0.000047    0.000055   -0.000111
    0.348698    2.158022    2.158115    2.157994    0.000047    0.000055   -0.000111
    0.697396    2.162175    2.162268    2.162148    0.000047    0.000055   -0.000111
    1.046094    2.169172    2.169265    2.169144    0.000047    0.000055   -0.000111
    1.394792    2.179128    2.179221    2.179099    0.000047    0.000055   -0.000112
    1.743490    2.192210    2.192303    2.192181    0.000048    0.000055   -0.000113
    2.092188    2.208650    2.208743    2.208620    0.000048    0.000055   -0.000113
    2.440886    2.228750    2.228843    2.228720    0.000049    0.000055   -0.000114
    2.789584    2.252907    2.253000    2.252876    0.000049    0.000055   -0.000116
    3.138282    2.281631    2.281723    2.281597    0.000050    0.000056   -0.000117
    3.486980    2.315582    2.315674    2.315547    0.000051    0.000056   -0.000119
    3.835678    2.355627    2.355719    2.355590    0.000052    0.000056   -0.000121
    4.184376    2.402917    2.403009    2.402879    0.000053    0.000056   -0.000123
    4.533074    2.459024    2.459115    2.458983    0.000054    0.000057   -0.000125
    4.881771    2.526165    2.526256    2.526121    0.000055    0.000057   -0.000128
    5.230469    2.607652    2.607742    2.607606    0.000057    0.000057   -0.000131
    5.579167    2.708907    2.708996    2.708857    0.000058    0.000057   -0.000134
    5.927865    2.840626    2.840714    2.840571    0.000060    0.000057   -0.000138
    6.276563    3.035211    3.035299    3.035153    0.000062    0.000057   -0.000142
    6.625261    3.095623    3.095708    3.095558    0.000065    0.000058   -0.000147
    6.973959    3.511325    3.511410    3.511256    0.000068    0.000056   -0.000153
    7.322657    3.477389    3.477466    3.477306    0.000075    0.000060   -0.000156
    7.671355    3.592045    3.592119    3.591952    0.000081    0.000059   -0.000162
    8.020053    4.590567    4.590634    4.590469    0.000073    0.000053   -0.000177
    8.368751    4.700560    4.700621    4.700437    0.000100    0.000058   -0.000172
    8.717449    4.007641    4.007688    4.007498    0.000107    0.000060   -0.000186
    9.066147    1.981173    1.981248    1.981108   -0.000028    0.000094   -0.000293
    9.414845    2.772495    2.772506    2.772301    0.000125    0.000053   -0.000215
    9.763543    2.578302    2.578316    2.578107    0.000106    0.000042   -0.000259
   10.112241    1.369754    1.369711    1.369488    0.000133    0.000042   -0.000263
   10.460939    1.359077    1.358977    1.358734    0.000165    0.000050   -0.000284
   10.809637    0.274035    0.273885    0.273616    0.000186    0.000041   -0.000323
   11.158335    0.432766    0.432519    0.432222    0.000219    0.000023   -0.000374
   11.507033    1.184872    1.184464    1.184123    0.000280   -0.000008   -0.000434
   11.855731   -0.775843   -0.776516   -0.776936    0.000393   -0.000056   -0.000521
   12.204429   -1.199641   -1.200884   -1.201440    0.000645   -0.000167   -0.000646
   12.553127   -0.749315   -0.752114   -0.753002    0.001484   -0.000623   -0.000798
   12.901825   -0.657773   -0.658101   -0.659209   -0.009955   -0.008285   -0.009200
   13.250523   -0.813567   -0.811845   -0.808556   -0.018357   -0.007431   -0.012927
   13.599221   -0.355947   -0.349127   -0.348180    0.000068   -0.000507    0.001287
   13.947919   -1.220977   -1.214971   -1.213704    0.001405    0.001283    0.001686
   14.296617   -0.571656   -0.562613   -0.559378    0.014616    0.011468    0.014222
   14.645314   -0.705572   -0.703983   -0.709340    0.003767    0.004654    0.003796
   14.994012   -0.460194   -0.460000   -0.463230   -0.000667    0.002841    0.000641
   15.342710   -0.420871   -0.422781   -0.422536   -0.001048    0.001260    0.002235
   15.691408   -0.499175   -0.498635   -0.500029   -0.001209    0.001067    0.000522
   16.040106   -0.171252   -0.171531   -0.173325   -0.004733   -0.001001   -0.007226
   16.388804   -0.152031   -0.151474   -0.150787    0.001343    0.001235    0.001552
   16.737502   -0.076822   -0.079568   -0.077821    0.000238   -0.001798    0.000385
   17.086200    0.054691    0.053532    0.054326    0.000110   -0.000500    0.000256
   17.434898    0.156241    0.155786    0.156157    0.000146   -0.000004    0.000437
   17.783596    0.224165    0.222800    0.223599    0.001844   -0.000598    0.001668
   18.132294    0.282478    0.281428    0.282042    0.000092   -0.000593    0.000185
   18.480992    0.335265    0.334508    0.334960    0.000029   -0.000398    0.000115
   18.829690    0.379985    0.379378    0.379745    0.000008   -0.000306    0.000098
   19.178388    0.419062    0.418553    0.418864   -0.000002   -0.000250    0.000089
   19.527086    0.453747    0.453309    0.453579   -0.000007   -0.000212    0.000084
   19.875784    0.484898    0.484513    0.484752   -0.000010   -0.000184    0.000079
   20.224482    0.513272    0.512930    0.513144   -0.000012   -0.000162    0.000075
   20.573180    0.538580    0.538272    0.538466   -0.000013   -0.000144    0.000071
   20.921878    0.561819    0.561540    0.561717   -0.000013   -0.000130    0.000068
   21.270576    0.583198    0.582943    0.583105   -0.000014   -0.000118    0.000064
   21.619274    0.601513    0.601279    0.601428   -0.000014   -0.000108    0.000061
   21.967972    0.616808    0.616592    0.616731   -0.000014   -0.000100    0.000059
   22.316670    0.635558    0.635357    0.635487   -0.000014   -0.000092    0.000056
   22.665368    0.649847    0.649660    0.649782   -0.000013   -0.000086    0.000054
   23.014066    0.663738    0.663563    0.663677   -0.000013   -0.000080    0.000051
   23.362764    0.678004    0.677841    0.677948   -0.000013   -0.000075    0.000049
   23.711462    0.690127    0.689973    0.690075   -0.000013   -0.000070    0.000047
   24.060160    0.700863    0.700719    0.700814   -0.000012   -0.000066    0.000045
   24.408857    0.711424    0.711287    0.711378   -0.000012   -0.000063    0.000044
   24.757555    0.721589    0.721459    0.721545   -0.000012   -0.000059    0.000042
   25.106253    0.731685    0.731562    0.731645   -0.000011   -0.000056    0.000041
   25.454951    0.741164    0.741048    0.741126   -0.000011   -0.000053    0.000039
   25.803649    0.750242    0.750131    0.750206   -0.000011   -0.000051    0.000038
   26.152347    0.758261    0.758155    0.758227   -0.000011   -0.000049    0.000036
   26.501045    0.766020    0.765919    0.765987   -0.000010   -0.000046    0.000035
   26.849743    0.773785    0.773688    0.773754   -0.000010   -0.000044    0.000034
   27.198441    0.780991    0.780898    0.780961   -0.000010   -0.000042    0.000033
   27.547139    0.787781    0.787692    0.787753   -0.000010   -0.000041    0.000032
   27.895837    0.793946    0.793860    0.793919   -0.000009   -0.000039    0.000031
   28.244535    0.800182    0.800099    0.800156   -0.000009   -0.000038    0.000030
   28.593233    0.806071    0.805993    0.806047   -0.000009   -0.000035    0.000030
   28.941931    0.811470    0.811395    0.811447   -0.000009   -0.000034    0.000028
   29.290629    0.816839    0.816766    0.816817   -0.000008   -0.000033    0.000027
   29.639327    0.821938    0.821867    0.821916   -0.000008   -0.000032    0.000027
   29.988025    0.826806    0.826738    0.826785   -0.000008   -0.000031    0.000026
   30.336723    0.831462    0.831396    0.831442   -0.000008   -0.000030    0.000025
   30.685421    0.835921    0.835857    0.835902   -0.000008   -0.000029    0.000024
   31.034119    0.840195    0.840133    0.840176   -0.000007   -0.000028    0.000024
   31.382817    0.844294    0.844235    0.844276   -0.000007   -0.000027    0.000023
   31.731515    0.848230    0.848172    0.848212   -0.000007   -0.000026    0.000023
   32.080213    0.852010    0.851954    0.851993   -0.000007   -0.000026    0.000022
   32.428911    0.855644    0.855590    0.855628   -0.000007   -0.000025    0.000021
   32.777609    0.859140    0.859087    0.859124   -0.000007   -0.000024    0.000021
   33.126307    0.862504    0.862453    0.862489   -0.000006   -0.000023    0.000020
   33.475005    0.865744    0.865695    0.865729   -0.000006   -0.000023    0.000020
   33.823703    0.868866    0.868818    0.868852   -0.000006   -0.000022    0.000019
   34.172400    0.871875    0.871829    0.871862   -0.000006   -0.000021    0.000019
   34.521098    0.874778    0.874733    0.874765   -0.000006   -0.000021    0.000019
 
 The outermost node in the dielectric function lies at epsilon=  16.9


--------------------------------------------------------------------------------------------------------


    OPTICS:  cpu time    0.2527: real time    0.2563
    4ORBIT:  cpu time    0.0000: real time    0.0000

 Spin-Orbit-Coupling matrix elements

 Ion:    1  E_soc:     -0.2840913
 l=   1
     0.0000000    -0.0473427    -0.0473427
    -0.0473427     0.0000000    -0.0473427
    -0.0473427    -0.0473427     0.0000000
 l=   2
     0.0000000    -0.0000011     0.0000000    -0.0000011    -0.0000048
    -0.0000011     0.0000000    -0.0000036    -0.0000011    -0.0000011
     0.0000000    -0.0000036     0.0000000    -0.0000036     0.0000000
    -0.0000011    -0.0000011    -0.0000036     0.0000000    -0.0000011
    -0.0000048    -0.0000011     0.0000000    -0.0000011     0.0000000
 l=   3
     0.0000000     0.0000000     0.0000000     0.0000000     0.0000000     0.0000000    -0.0000000
     0.0000000     0.0000000    -0.0000000     0.0000000    -0.0000000    -0.0000000    -0.0000000
     0.0000000    -0.0000000     0.0000000    -0.0000000    -0.0000000    -0.0000000     0.0000000
     0.0000000     0.0000000    -0.0000000     0.0000000    -0.0000000     0.0000000     0.0000000
     0.0000000    -0.0000000    -0.0000000    -0.0000000     0.0000000    -0.0000000     0.0000000
     0.0000000    -0.0000000    -0.0000000     0.0000000    -0.0000000     0.0000000    -0.0000000
    -0.0000000    -0.0000000     0.0000000     0.0000000     0.0000000    -0.0000000     0.0000000

 total amount of memory used by VASP MPI-rank0    62349. kBytes
=======================================================================

   base      :      30000. kBytes
   nonl-proj :      10066. kBytes
   fftplans  :       4132. kBytes
   grid      :       4643. kBytes
   one-center:        196. kBytes
   wavefun   :      13312. kBytes
 
  
  
 General timing and accounting informations for this job:
 ========================================================
  
                  Total CPU time used (sec):       74.770
                            User time (sec):       73.632
                          System time (sec):        1.138
                         Elapsed time (sec):       75.191
  
                   Maximum memory used (kb):      174308.
                   Average memory used (kb):           0.
  
                          Minor page faults:        62903
                          Major page faults:            0
                 Voluntary context switches:         2252
