   1   1   0   0
  0.6532254E+02  0.4520565E-09  0.4520565E-09  0.4520565E-09  0.1000000E-15
  1.000000000000000E-004
  CAR 
 Og_FCC                                  
     52.85550176    -48.72920598  301     -1.23835511      1.00000000
    -48.729  0.0000E+00  0.0000E+00
    -48.391  0.0000E+00  0.0000E+00
    -48.052  0.0000E+00  0.0000E+00
    -47.713  0.0000E+00  0.0000E+00
    -47.375  0.0000E+00  0.0000E+00
    -47.036  0.0000E+00  0.0000E+00
    -46.698  0.0000E+00  0.0000E+00
    -46.359  0.0000E+00  0.0000E+00
    -46.020  0.0000E+00  0.0000E+00
    -45.682  0.0000E+00  0.0000E+00
    -45.343  0.0000E+00  0.0000E+00
    -45.004  0.0000E+00  0.0000E+00
    -44.666  0.0000E+00  0.0000E+00
    -44.327  0.0000E+00  0.0000E+00
    -43.989  0.0000E+00  0.4000E+01
    -43.650  0.0000E+00  0.4000E+01
    -43.311  0.0000E+00  0.4000E+01
    -42.973  0.0000E+00  0.4000E+01
    -42.634  0.0000E+00  0.4000E+01
    -42.296  0.0000E+00  0.4000E+01
    -41.957  0.0000E+00  0.4000E+01
    -41.618  0.0000E+00  0.4000E+01
    -41.280  0.0000E+00  0.4000E+01
    -40.941  0.0000E+00  0.4000E+01
    -40.602  0.0000E+00  0.4000E+01
    -40.264  0.0000E+00  0.4000E+01
    -39.925  0.0000E+00  0.4000E+01
    -39.587  0.0000E+00  0.1000E+02
    -39.248  0.0000E+00  0.1000E+02
    -38.909  0.0000E+00  0.1000E+02
    -38.571  0.0000E+00  0.1000E+02
    -38.232  0.0000E+00  0.1000E+02
    -37.894  0.0000E+00  0.1000E+02
    -37.555  0.0000E+00  0.1000E+02
    -37.216  0.0000E+00  0.1000E+02
    -36.878  0.0000E+00  0.1000E+02
    -36.539  0.0000E+00  0.1000E+02
    -36.200  0.0000E+00  0.1000E+02
    -35.862  0.0000E+00  0.1000E+02
    -35.523  0.0000E+00  0.1000E+02
    -35.185  0.0000E+00  0.1000E+02
    -34.846  0.0000E+00  0.1000E+02
    -34.507  0.0000E+00  0.1000E+02
    -34.169  0.0000E+00  0.1000E+02
    -33.830  0.0000E+00  0.1000E+02
    -33.491  0.0000E+00  0.1000E+02
    -33.153  0.0000E+00  0.1000E+02
    -32.814  0.0000E+00  0.1000E+02
    -32.476  0.0000E+00  0.1000E+02
    -32.137  0.0000E+00  0.1000E+02
    -31.798  0.0000E+00  0.1000E+02
    -31.460  0.0000E+00  0.1000E+02
    -31.121  0.0000E+00  0.1000E+02
    -30.783  0.0000E+00  0.1000E+02
    -30.444  0.0000E+00  0.1000E+02
    -30.105  0.0000E+00  0.1000E+02
    -29.767  0.0000E+00  0.1000E+02
    -29.428  0.0000E+00  0.1000E+02
    -29.089  0.0000E+00  0.1000E+02
    -28.751  0.0000E+00  0.1000E+02
    -28.412  0.0000E+00  0.1000E+02
    -28.074  0.0000E+00  0.1000E+02
    -27.735  0.0000E+00  0.1000E+02
    -27.396  0.0000E+00  0.1000E+02
    -27.058  0.0000E+00  0.1000E+02
    -26.719  0.0000E+00  0.1000E+02
    -26.381  0.0000E+00  0.1000E+02
    -26.042  0.0000E+00  0.1000E+02
    -25.703  0.0000E+00  0.1000E+02
    -25.365  0.0000E+00  0.1000E+02
    -25.026  0.0000E+00  0.1000E+02
    -24.687  0.0000E+00  0.1000E+02
    -24.349  0.0000E+00  0.1000E+02
    -24.010  0.0000E+00  0.1000E+02
    -23.672  0.0000E+00  0.1000E+02
    -23.333  0.0000E+00  0.1000E+02
    -22.994  0.0000E+00  0.1000E+02
    -22.656  0.0000E+00  0.1000E+02
    -22.317  0.0000E+00  0.1000E+02
    -21.979  0.0000E+00  0.1000E+02
    -21.640  0.0000E+00  0.1000E+02
    -21.301  0.0000E+00  0.1000E+02
    -20.963  0.0000E+00  0.1000E+02
    -20.624  0.0000E+00  0.1000E+02
    -20.285  0.0000E+00  0.1000E+02
    -19.947  0.0000E+00  0.1000E+02
    -19.608  0.0000E+00  0.1000E+02
    -19.270  0.0000E+00  0.1000E+02
    -18.931  0.0000E+00  0.1000E+02
    -18.592  0.0000E+00  0.1000E+02
    -18.254  0.0000E+00  0.1000E+02
    -17.915  0.0000E+00  0.1000E+02
    -17.577  0.0000E+00  0.1000E+02
    -17.238  0.0000E+00  0.1055E+02
    -16.899  0.0000E+00  0.1200E+02
    -16.561  0.0000E+00  0.1200E+02
    -16.222  0.0000E+00  0.1200E+02
    -15.883  0.0000E+00  0.1200E+02
    -15.545  0.0000E+00  0.1200E+02
    -15.206  0.0000E+00  0.1200E+02
    -14.868  0.0000E+00  0.1200E+02
    -14.529  0.0000E+00  0.1200E+02
    -14.190  0.0000E+00  0.1200E+02
    -13.852  0.0000E+00  0.1200E+02
    -13.513  0.0000E+00  0.1200E+02
    -13.175  0.0000E+00  0.1200E+02
    -12.836  0.0000E+00  0.1200E+02
    -12.497  0.0000E+00  0.1200E+02
    -12.159  0.0000E+00  0.1200E+02
    -11.820  0.0000E+00  0.1200E+02
    -11.481  0.0000E+00  0.1200E+02
    -11.143  0.0000E+00  0.1200E+02
    -10.804  0.0000E+00  0.1200E+02
    -10.466  0.0000E+00  0.1200E+02
    -10.127  0.0000E+00  0.1200E+02
     -9.788  0.0000E+00  0.1200E+02
     -9.450  0.0000E+00  0.1200E+02
     -9.111  0.0000E+00  0.1200E+02
     -8.773  0.0000E+00  0.1200E+02
     -8.434  0.0000E+00  0.1200E+02
     -8.095  0.0000E+00  0.1200E+02
     -7.757  0.0000E+00  0.1200E+02
     -7.418  0.0000E+00  0.1200E+02
     -7.079  0.0000E+00  0.1200E+02
     -6.741  0.0000E+00  0.1200E+02
     -6.402  0.0000E+00  0.1200E+02
     -6.064  0.0000E+00  0.1200E+02
     -5.725  0.0000E+00  0.1200E+02
     -5.386  0.3275E+00  0.1386E+02
     -5.048  0.0000E+00  0.1400E+02
     -4.709  0.0000E+00  0.1400E+02
     -4.371  0.0000E+00  0.1400E+02
     -4.032  0.0000E+00  0.1400E+02
     -3.693  0.0000E+00  0.1400E+02
     -3.355  0.0000E+00  0.1400E+02
     -3.016  0.0000E+00  0.1400E+02
     -2.677  0.0000E+00  0.1540E+02
     -2.339  0.0000E+00  0.1575E+02
     -2.000  0.0000E+00  0.1678E+02
     -1.662  0.0000E+00  0.1763E+02
     -1.323  0.0000E+00  0.1800E+02
     -0.984  0.0000E+00  0.1800E+02
     -0.646  0.0000E+00  0.1800E+02
     -0.307  0.0000E+00  0.1800E+02
      0.031  0.0000E+00  0.1800E+02
      0.370  0.0000E+00  0.1800E+02
      0.709  0.0000E+00  0.1800E+02
      1.047  0.0000E+00  0.1800E+02
      1.386  0.0000E+00  0.1800E+02
      1.725  0.0000E+00  0.1800E+02
      2.063  0.0000E+00  0.1800E+02
      2.402  0.0000E+00  0.1800E+02
      2.740  0.0000E+00  0.1801E+02
      3.079  0.0000E+00  0.1801E+02
      3.418  0.0000E+00  0.1808E+02
      3.756  0.0000E+00  0.1814E+02
      4.095  0.0000E+00  0.1814E+02
      4.433  0.0000E+00  0.1839E+02
      4.772  0.0000E+00  0.1889E+02
      5.111  0.8203E-01  0.1947E+02
      5.449  0.0000E+00  0.1981E+02
      5.788  0.0000E+00  0.2031E+02
      6.127  0.0000E+00  0.2064E+02
      6.465  0.0000E+00  0.2186E+02
      6.804  0.0000E+00  0.2203E+02
      7.142  0.0000E+00  0.2232E+02
      7.481  0.1641E+00  0.2308E+02
      7.820  0.0000E+00  0.2404E+02
      8.158  0.0000E+00  0.2461E+02
      8.497  0.0000E+00  0.2550E+02
      8.835  0.0000E+00  0.2561E+02
      9.174  0.0000E+00  0.2586E+02
      9.513  0.0000E+00  0.2670E+02
      9.851  0.0000E+00  0.2719E+02
     10.190  0.0000E+00  0.2756E+02
     10.529  0.0000E+00  0.2843E+02
     10.867  0.0000E+00  0.2843E+02
     11.206  0.6941E-07  0.2890E+02
     11.544  0.0000E+00  0.3014E+02
     11.883  0.0000E+00  0.3058E+02
     12.222  0.0000E+00  0.3113E+02
     12.560  0.0000E+00  0.3148E+02
     12.899  0.1154E-15  0.3295E+02
     13.237  0.0000E+00  0.3397E+02
     13.576  0.0000E+00  0.3453E+02
     13.915  0.0000E+00  0.3528E+02
     14.253  0.1641E+00  0.3553E+02
     14.592  0.5123E+00  0.3592E+02
     14.931  0.0000E+00  0.3651E+02
     15.269  0.0000E+00  0.3808E+02
     15.608  0.6562E+00  0.3956E+02
     15.946  0.0000E+00  0.4136E+02
     16.285  0.0000E+00  0.4250E+02
     16.624  0.9844E+00  0.4340E+02
     16.962  0.0000E+00  0.4414E+02
     17.301  0.0000E+00  0.4427E+02
     17.639  0.0000E+00  0.4504E+02
     17.978  0.0000E+00  0.4548E+02
     18.317  0.2648E-03  0.4595E+02
     18.655  0.0000E+00  0.4732E+02
     18.994  0.0000E+00  0.4801E+02
     19.333  0.0000E+00  0.4895E+02
     19.671  0.0000E+00  0.4982E+02
     20.010  0.0000E+00  0.5038E+02
     20.348  0.3281E+00  0.5141E+02
     20.687  0.3909E-05  0.5219E+02
     21.026  0.3281E+00  0.5340E+02
     21.364  0.4099E-09  0.5445E+02
     21.703  0.0000E+00  0.5549E+02
     22.041  0.3281E+00  0.5660E+02
     22.380  0.1965E+00  0.5739E+02
     22.719  0.0000E+00  0.5775E+02
     23.057  0.0000E+00  0.5822E+02
     23.396  0.0000E+00  0.5867E+02
     23.735  0.0000E+00  0.5971E+02
     24.073  0.0000E+00  0.6064E+02
     24.412  0.0000E+00  0.6133E+02
     24.750  0.1191E-04  0.6188E+02
     25.089  0.0000E+00  0.6318E+02
     25.428  0.0000E+00  0.6382E+02
     25.766  0.0000E+00  0.6458E+02
     26.105  0.0000E+00  0.6569E+02
     26.443  0.0000E+00  0.6664E+02
     26.782  0.0000E+00  0.6772E+02
     27.121  0.6564E+00  0.6944E+02
     27.459  0.0000E+00  0.7073E+02
     27.798  0.8352E-01  0.7124E+02
     28.137  0.0000E+00  0.7191E+02
     28.475  0.0000E+00  0.7241E+02
     28.814  0.0000E+00  0.7296E+02
     29.152  0.0000E+00  0.7352E+02
     29.491  0.0000E+00  0.7469E+02
     29.830  0.0000E+00  0.7515E+02
     30.168  0.6563E+00  0.7699E+02
     30.507  0.1641E+00  0.7800E+02
     30.845  0.0000E+00  0.7887E+02
     31.184  0.0000E+00  0.8020E+02
     31.523  0.6563E+00  0.8144E+02
     31.861  0.0000E+00  0.8263E+02
     32.200  0.0000E+00  0.8316E+02
     32.539  0.1020E-14  0.8416E+02
     32.877  0.6563E+00  0.8517E+02
     33.216  0.0000E+00  0.8575E+02
     33.554  0.0000E+00  0.8681E+02
     33.893  0.0000E+00  0.8739E+02
     34.232  0.3492E-09  0.8807E+02
     34.570  0.0000E+00  0.8915E+02
     34.909  0.6570E+00  0.8971E+02
     35.247  0.0000E+00  0.9075E+02
     35.586  0.0000E+00  0.9140E+02
     35.925  0.0000E+00  0.9247E+02
     36.263  0.1045E-03  0.9379E+02
     36.602  0.0000E+00  0.9491E+02
     36.941  0.0000E+00  0.9604E+02
     37.279  0.0000E+00  0.9700E+02
     37.618  0.0000E+00  0.9778E+02
     37.956  0.0000E+00  0.9852E+02
     38.295  0.6454E+00  0.9984E+02
     38.634  0.0000E+00  0.1008E+03
     38.972  0.0000E+00  0.1019E+03
     39.311  0.0000E+00  0.1031E+03
     39.649  0.0000E+00  0.1038E+03
     39.988  0.3281E+00  0.1053E+03
     40.327  0.0000E+00  0.1066E+03
     40.665  0.0000E+00  0.1080E+03
     41.004  0.0000E+00  0.1085E+03
     41.343  0.0000E+00  0.1088E+03
     41.681  0.0000E+00  0.1098E+03
     42.020  0.0000E+00  0.1110E+03
     42.358  0.0000E+00  0.1123E+03
     42.697  0.3817E-01  0.1138E+03
     43.036  0.0000E+00  0.1147E+03
     43.374  0.1266E+00  0.1160E+03
     43.713  0.0000E+00  0.1170E+03
     44.051  0.0000E+00  0.1184E+03
     44.390  0.1382E-13  0.1188E+03
     44.729  0.1094E+00  0.1200E+03
     45.067  0.0000E+00  0.1209E+03
     45.406  0.2188E+00  0.1214E+03
     45.745  0.0000E+00  0.1221E+03
     46.083  0.8203E-01  0.1229E+03
     46.422  0.3281E+00  0.1240E+03
     46.760  0.6563E+00  0.1254E+03
     47.099  0.0000E+00  0.1263E+03
     47.438  0.0000E+00  0.1276E+03
     47.776  0.8203E-01  0.1279E+03
     48.115  0.0000E+00  0.1280E+03
     48.453  0.0000E+00  0.1280E+03
     48.792  0.0000E+00  0.1280E+03
     49.131  0.0000E+00  0.1280E+03
     49.469  0.0000E+00  0.1280E+03
     49.808  0.0000E+00  0.1280E+03
     50.147  0.0000E+00  0.1280E+03
     50.485  0.0000E+00  0.1280E+03
     50.824  0.0000E+00  0.1280E+03
     51.162  0.0000E+00  0.1280E+03
     51.501  0.0000E+00  0.1280E+03
     51.840  0.0000E+00  0.1280E+03
     52.178  0.0000E+00  0.1280E+03
     52.517  0.0000E+00  0.1280E+03
     52.856  0.0000E+00  0.1280E+03
