Xe_FCC                                  
   1.00000000000000     
     4.432200    0.000000    0.000000
     2.216100    3.838398   -0.000000
     2.216100    1.279466    3.618876
   Xe
     1
Direct
  0.000000  0.000000  0.000000
 
   56   56   56
 -79.450     -74.747     -61.390     -41.464     -17.933      5.9695      27.338      44.046      54.960      59.939    
  59.652      55.306      48.354      40.248      32.249      25.263      19.538      14.969      11.395      8.6351    
  6.5276      4.9321      3.7391      2.8592      2.2252      1.7831      1.4948      1.3320      1.2799      1.3320    
  1.4948      1.7831      2.2252      2.8592      3.7391      4.9321      6.5276      8.6351      11.395      14.969    
  19.538      25.263      32.249      40.248      48.354      55.306      59.652      59.939      54.960      44.046    
  27.338      5.9695     -17.933     -41.464     -61.390     -74.747     -74.747     -65.720     -49.100     -27.437    
 -3.8520      18.573      37.327      50.798      58.382      60.374      57.742      51.834      44.118      35.944    
  28.419      22.111      17.015      12.993      9.8680      7.4689      5.6437      4.2702      3.2490      2.5039    
  1.9743      1.6152      1.3935      1.2879      1.2879      1.3934      1.6152      1.9742      2.5039      3.2488    
  4.2700      5.6434      7.4686      9.8673      12.992      17.013      22.109      28.417      35.941      44.114    
  51.829      57.736      60.368      58.376      50.792      37.322      18.570     -3.8538     -27.438     -49.101    
 -65.720     -74.747     -61.390     -49.100     -30.793     -9.2313      12.577      31.930      46.859      56.329    
  60.236      59.236      54.488      47.385      39.304      31.446      24.637      19.064      14.617      11.136    
  8.4464      6.3903      4.8325      3.6668      2.8065      2.1863      1.7536      1.4713      1.3119      1.2608    
  1.3119      1.4713      1.7536      2.1862      2.8064      3.6665      4.8321      6.3897      8.4455      11.135    
  14.614      19.061      24.633      31.441      39.297      47.375      54.478      59.224      60.224      56.318    
  46.849      31.922      12.571     -9.2348     -30.795     -49.101     -61.390     -65.720     -41.464     -27.437    
 -9.2313      10.446      28.929      44.057      54.466      59.676      60.002      56.352      49.963      42.172    
  34.199      27.018      21.039      16.211      12.400      9.4336      7.1526      5.4137      4.1033      3.1275    
  2.4150      1.9078      1.5638      1.3511      1.2499      1.2498      1.3511      1.5637      1.9077      2.4148    
  3.1273      4.1029      5.4130      7.1515      9.4319      12.398      16.208      21.034      27.011      34.190    
  42.161      49.949      56.336      59.985      59.659      54.450      44.044      28.918      10.439     -9.2358    
 -27.439     -41.465     -49.101     -49.101     -17.933     -3.8520      12.577      28.929      43.045      53.369    
  59.126      60.307      57.535      51.842      44.448      36.541      29.146      22.855      17.715      13.614    
  10.398      7.9077      5.9973      4.5474      3.4590      2.6553      2.0741      1.6689      1.4034      1.2541    
  1.2056      1.2541      1.4034      1.6688      2.0739      2.6551      3.4586      4.5468      5.9962      7.9060    
  10.396      13.611      17.710      22.848      29.136      36.529      44.432      51.823      57.514      60.285    
  59.105      53.350      43.029      28.917      12.569     -3.8569     -17.935     -27.439     -30.795     -27.438    
  5.9695      18.573      31.930      44.057      53.369      58.905      60.390      58.172      53.052      46.083    
  38.371      30.918      24.430      19.061      14.730      11.304      8.6293      6.5646      4.9856      3.7915    
  2.9005      2.2481      1.7832      1.4670      1.2713      1.1780      1.1780      1.2713      1.4669      1.7830    
  2.2479      2.9002      3.7910      4.9846      6.5631      8.6270      11.300      14.725      19.054      24.421    
  30.906      38.355      46.063      53.029      58.147      60.364      58.881      53.348      44.040      31.918    
  18.565      5.9645     -3.8569     -9.2358     -9.2348     -3.8538      27.338      37.327      46.859      54.466    
  59.126      60.390      58.371      53.641      47.063      39.620      32.248      25.687      20.187      15.697    
  12.112      9.2896      7.0946      5.4030      4.1140      3.1430      2.4241      1.9028      1.5386      1.2994    
  1.1646      1.1208      1.1646      1.2993      1.5385      1.9026      2.4239      3.1426      4.1133      5.4018    
  7.0927      9.2868      12.108      15.691      20.179      25.676      32.234      39.601      47.040      53.615    
  58.343      60.362      59.100      54.444      46.841      37.313      27.330      18.565      12.569      10.439    
  12.571      18.570      44.046      50.798      56.329      59.676      60.307      58.172      53.641      47.389    
  40.252      33.071      26.564      21.035      16.470      12.787      9.8605      7.5658      5.7837      4.4147    
  3.3744      2.5958      2.0235      1.6147      1.3358      1.1629      1.0802      1.0802      1.1629      1.3358    
  1.6147      2.0233      2.5956      3.3738      4.4139      5.7822      7.5637      9.8571      12.782      16.463    
  21.026      26.552      33.055      40.231      47.364      53.613      58.142      60.278      59.649      56.306    
  50.780      44.033      37.313      31.918      28.917      28.918      31.922      37.322      54.960      58.382    
  60.236      60.002      57.535      53.052      47.063      40.252      33.349      27.015      21.563      17.009    
  13.295      10.315      7.9580      6.1117      4.6816      3.5853      2.7566      2.1400      1.6920      1.3773    
  1.1706      1.0532      1.0155      1.0532      1.1706      1.3773      1.6921      2.1399      2.7565      3.5848    
  4.6807      6.1102      7.9556      10.312      13.290      17.002      21.553      27.001      33.332      40.230    
  47.037      53.024      57.504      59.973      60.209      58.360      54.942      50.780      46.841      44.040    
  43.029      44.044      46.849      50.792      59.939      60.374      59.236      56.352      51.842      46.083    
  39.620      33.071      27.015      21.742      17.286      13.611      10.632      8.2527      6.3726      4.9033    
  3.7670      2.8998      2.2474      1.7662      1.4209      1.1845      1.0374     0.96685     0.96694      1.0374    
  1.1847      1.4211      1.7664      2.2474      2.8997      3.7666      4.9025      6.3710      8.2504      10.628    
  13.606      17.278      21.732      27.001      33.053      39.598      46.057      51.814      56.322      59.208    
  60.349      59.918      58.360      56.306      54.444      53.348      53.350      54.450      56.318      58.376    
  59.652      57.742      54.488      49.963      44.448      38.371      32.248      26.564      21.563      17.286    
  13.718      10.795      8.4358      6.5539      5.0697      3.9114      3.0190      2.3405      1.8337      1.4634    
  1.2024      1.0298     0.93184     0.89998     0.93195      1.0300      1.2027      1.4637      1.8341      2.3407    
  3.0191      3.9112      5.0691      6.5525      8.4335      10.791      13.713      17.279      21.553      26.551    
  32.231      38.351      44.423      49.938      54.462      57.717      59.629      60.349      60.209      59.649    
  59.100      58.881      59.105      59.659      60.224      60.368      55.306      51.834      47.385      42.172    
  36.541      30.918      25.687      21.035      17.009      13.611      10.795      8.4978      6.6469      5.1729    
  4.0118      3.1085      2.4148      1.8906      1.5017      1.2213      1.0281     0.90739     0.84936     0.84943    
 0.90761      1.0285      1.2218      1.5023      1.8912      2.4154      3.1089      4.0120      5.1726      6.6460    
  8.4959      10.792      13.606      17.003      21.025      25.676      30.902      36.523      42.150      47.361    
  51.812      55.283      57.717      59.208      59.973      60.278      60.362      60.364      60.285      59.985    
  59.224      57.736      48.354      44.118      39.304      34.199      29.146      24.430      20.187      16.470    
  13.295      10.632      8.4358      6.6469      5.2079      4.0632      3.1641      2.4667      1.9337      1.5332    
  1.2389      1.0300     0.89118     0.81193     0.78621     0.81214     0.89156      1.0306      1.2396      1.5341    
  1.9346      2.4677      3.1649      4.0640      5.2080      6.6466      8.4343      10.630      13.291      16.465    
  20.178      24.420      29.132      34.183      39.287      44.098      48.334      51.812      54.462      56.322    
  57.504      58.142      58.343      58.147      57.514      56.336      54.478      51.829      40.248      35.944    
  31.446      27.018      22.855      19.061      15.697      12.787      10.315      8.2527      6.5539      5.1729    
  4.0632      3.1829      2.4933      1.9607      1.5555      1.2531      1.0333     0.88104     0.78518     0.73900    
 0.73910     0.78558     0.88163      1.0342      1.2541      1.5568      1.9620      2.4948      3.1843      4.0646    
  5.1737      6.5544      8.2522      10.314      12.784      15.693      19.054      22.847      27.008      31.432    
  35.931      40.232      44.098      47.361      49.938      51.814      53.024      53.613      53.615      53.029    
  51.823      49.949      47.375      44.114      32.249      28.419      24.637      21.039      17.715      14.730    
  12.112      9.8605      7.9580      6.3726      5.0697      4.0118      3.1641      2.4933      1.9698      1.5671    
  1.2623      1.0366     0.87514     0.76705     0.70505     0.68491     0.70536     0.76765     0.87604      1.0377    
  1.2637      1.5688      1.9718      2.4954      3.1662      4.0138      5.0714      6.3740      7.9585      9.8604    
  12.110      14.727      17.711      21.032      24.631      28.409      32.237      35.931      39.287      42.150    
  44.423      46.057      47.037      47.364      47.040      46.063      44.432      42.161      39.297      35.941    
  25.263      22.111      19.064      16.211      13.614      11.304      9.2896      7.5658      6.1117      4.9033    
  3.9114      3.1085      2.4667      1.9607      1.5671      1.2655      1.0385     0.87215     0.75589     0.68230    
 0.64668     0.64687     0.68283     0.75679     0.87339      1.0401      1.2674      1.5693      1.9632      2.4694    
  3.1113      3.9144      4.9059      6.1143      7.5675      9.2910      11.304      13.613      16.210      19.060    
  22.106      25.259      28.409      31.432      34.183      36.523      38.351      39.598      40.230      40.231    
  39.601      38.355      36.529      34.190      31.441      28.417      19.538      17.015      14.617      12.400    
  10.398      8.6293      7.0946      5.7837      4.6816      3.7670      3.0190      2.4148      1.9337      1.5555    
  1.2623      1.0385     0.87125     0.75060     0.66925     0.62233     0.60713     0.62274     0.67007     0.75184    
 0.87291      1.0405      1.2648      1.5584      1.9369      2.4184      3.0226      3.7709      4.6852      5.7874    
  7.0975      8.6320      10.400      12.401      14.617      17.014      19.536      22.106      24.631      27.008    
  29.132      30.902      32.231      33.053      33.332      33.055      32.234      30.906      29.136      27.011    
  24.633      22.109      14.969      12.993      11.136      9.4336      7.9077      6.5646      5.4030      4.4147    
  3.5853      2.8998      2.3405      1.8906      1.5332      1.2531      1.0366     0.87215     0.75060     0.66500    
 0.61049     0.58407     0.58430     0.61119     0.66617     0.75226     0.87429      1.0392      1.2562      1.5367    
  1.8945      2.3448      2.9043      3.5901      4.4194      5.4079      6.5690      7.9116      9.4375      11.139    
  12.995      14.970      17.014      19.060      21.032      22.847      24.420      25.676      26.551      27.001    
  27.001      26.552      25.676      24.421      22.848      21.034      19.061      17.013      11.395      9.8680    
  8.4464      7.1526      5.9973      4.9856      4.1140      3.3744      2.7566      2.2474      1.8337      1.5017    
  1.2389      1.0333     0.87514     0.75589     0.66925     0.61049     0.57651     0.56555     0.57704     0.61154    
 0.67084     0.75803     0.87781      1.0366      1.2426      1.5060      1.8384      2.2526      2.7620      3.3802    
  4.1198      4.9916      6.0032      7.1578      8.4517      9.8727      11.398      12.995      14.617      16.210    
  17.711      19.054      20.178      21.025      21.553      21.732      21.553      21.026      20.179      19.054    
  17.710      16.208      14.614      12.992      8.6351      7.4689      6.3903      5.4137      4.5474      3.7915    
  3.1430      2.5958      2.1400      1.7662      1.4634      1.2213      1.0300     0.88104     0.76705     0.68230    
 0.62233     0.58407     0.56555     0.56584     0.58495     0.62380     0.68437     0.76974     0.88431      1.0339    
  1.2257      1.4685      1.7718      2.1461      2.6021      3.1499      3.7984      4.5543      5.4208      6.3968    
  7.4750      8.6411      9.8727      11.139      12.401      13.613      14.727      15.693      16.465      17.003    
  17.279      17.278      17.002      16.463      15.691      14.725      13.611      12.398      11.135      9.8673    
  6.5276      5.6437      4.8325      4.1033      3.4590      2.9005      2.4241      2.0235      1.6920      1.4209    
  1.2024      1.0281     0.89118     0.78518     0.70505     0.64668     0.60713     0.58430     0.57704     0.58495    
 0.60842     0.64864     0.70765     0.78848     0.89512      1.0328      1.2076      1.4268      1.6983      2.0304    
  2.4313      2.9082      3.4670      4.1111      4.8406      5.6515      6.5346      7.4750      8.4517      9.4375    
  10.400      11.304      12.110      12.784      13.291      13.606      13.713      13.606      13.290      12.782    
  12.108      11.300      10.396      9.4319      8.4455      7.4686      4.9321      4.2702      3.6668      3.1275    
  2.6553      2.2481      1.9028      1.6147      1.3773      1.1845      1.0298     0.90739     0.81193     0.73900    
 0.68491     0.64687     0.62274     0.61119     0.61154     0.62380     0.64864     0.68741     0.74220     0.81586    
 0.91203      1.0352      1.1905      1.3840      1.6219      1.9106      2.2562      2.6636      3.1363      3.6753    
  4.2787      4.9407      5.6515      6.3968      7.1578      7.9116      8.6320      9.2910      9.8604      10.314    
  10.630      10.792      10.791      10.628      10.312      9.8571      9.2868      8.6270      7.9060      7.1515    
  6.3897      5.6434      3.7391      3.2490      2.8065      2.4150      2.0741      1.7832      1.5386      1.3358    
  1.1706      1.0374     0.93184     0.84936     0.78621     0.73910     0.70536     0.68283     0.67007     0.66617    
 0.67084     0.68437     0.70765     0.74220     0.79008     0.85398     0.93715      1.0434      1.1772      1.3432    
  1.5464      1.7916      2.0830      2.4240      2.8159      3.2584      3.7481      4.2787      4.8406      5.4208    
  6.0032      6.5690      7.0975      7.5675      7.9585      8.2522      8.4343      8.4959      8.4335      8.2504    
  7.9556      7.5637      7.0927      6.5631      5.9962      5.4130      4.8321      4.2700      2.8592      2.5039    
  2.1863      1.9078      1.6689      1.4670      1.2994      1.1629      1.0532     0.96685     0.89998     0.84943    
 0.81214     0.78558     0.76765     0.75679     0.75184     0.75226     0.75803     0.76974     0.78848     0.81586    
 0.85398     0.90537     0.97297      1.0601      1.1703      1.3075      1.4755      1.6778      1.9173      2.1958    
  2.5135      2.8690      3.2584      3.6753      4.1111      4.5543      4.9916      5.4079      5.7874      6.1143    
  6.3740      6.5544      6.6466      6.6460      6.5525      6.3710      6.1102      5.7822      5.4018      4.9846    
  4.5468      4.1029      3.6665      3.2488      2.2252      1.9743      1.7536      1.5638      1.4034      1.2713    
  1.1646      1.0802      1.0155     0.96694     0.93195     0.90761     0.89156     0.88163     0.87604     0.87339    
 0.87291     0.87429     0.87781     0.88431     0.89512     0.91203     0.93715     0.97297      1.0222      1.0877    
  1.1726      1.2800      1.4127      1.5733      1.7635      1.9843      2.2350      2.5135      2.8159      3.1363    
  3.4670      3.7984      4.1198      4.4194      4.6852      4.9059      5.0714      5.1737      5.2080      5.1726    
  5.0691      4.9025      4.6807      4.4139      4.1133      3.7910      3.4586      3.1273      2.8064      2.5039    
  1.7831      1.6152      1.4713      1.3511      1.2541      1.1780      1.1208      1.0802      1.0532      1.0374    
  1.0300      1.0285      1.0306      1.0342      1.0377      1.0401      1.0405      1.0392      1.0366      1.0339    
  1.0328      1.0352      1.0434      1.0601      1.0877      1.1291      1.1867      1.2632      1.3608      1.4811    
  1.6253      1.7933      1.9843      2.1958      2.4240      2.6636      2.9082      3.1499      3.3802      3.5901    
  3.7709      3.9144      4.0138      4.0646      4.0640      4.0120      3.9112      3.7666      3.5848      3.3738    
  3.1426      2.9002      2.6551      2.4148      2.1862      1.9742      1.4948      1.3935      1.3119      1.2499    
  1.2056      1.1780      1.1646      1.1629      1.1706      1.1847      1.2027      1.2218      1.2396      1.2541    
  1.2637      1.2674      1.2648      1.2562      1.2426      1.2257      1.2076      1.1905      1.1772      1.1703    
  1.1726      1.1867      1.2150      1.2595      1.3220      1.4036      1.5048      1.6253      1.7635      1.9173    
  2.0830      2.2562      2.4313      2.6021      2.7620      2.9043      3.0226      3.1113      3.1662      3.1843    
  3.1649      3.1089      3.0191      2.8997      2.7565      2.5956      2.4239      2.2479      2.0739      1.9077    
  1.7536      1.6152      1.3320      1.2879      1.2608      1.2498      1.2541      1.2713      1.2993      1.3358    
  1.3773      1.4211      1.4637      1.5023      1.5341      1.5568      1.5688      1.5693      1.5584      1.5367    
  1.5060      1.4685      1.4268      1.3840      1.3432      1.3075      1.2800      1.2632      1.2595      1.2707    
  1.2981      1.3424      1.4036      1.4811      1.5733      1.6778      1.7916      1.9106      2.0304      2.1461    
  2.2526      2.3448      2.4184      2.4694      2.4954      2.4948      2.4677      2.4154      2.3407      2.2474    
  2.1399      2.0233      1.9026      1.7830      1.6688      1.5637      1.4713      1.3934      1.2799      1.2879    
  1.3119      1.3511      1.4034      1.4669      1.5385      1.6147      1.6921      1.7664      1.8341      1.8912    
  1.9346      1.9620      1.9718      1.9632      1.9369      1.8945      1.8384      1.7718      1.6983      1.6219    
  1.5464      1.4755      1.4127      1.3608      1.3220      1.2981      1.2900      1.2981      1.3220      1.3608    
  1.4127      1.4755      1.5464      1.6219      1.6983      1.7718      1.8384      1.8945      1.9369      1.9632    
  1.9718      1.9620      1.9346      1.8912      1.8341      1.7664      1.6921      1.6147      1.5385      1.4669    
  1.4034      1.3511      1.3119      1.2879      1.3320      1.3934      1.4713      1.5637      1.6688      1.7830    
  1.9026      2.0233      2.1399      2.2474      2.3407      2.4154      2.4677      2.4948      2.4954      2.4694    
  2.4184      2.3448      2.2526      2.1461      2.0304      1.9106      1.7916      1.6778      1.5733      1.4811    
  1.4036      1.3424      1.2981      1.2707      1.2595      1.2632      1.2800      1.3075      1.3432      1.3840    
  1.4268      1.4685      1.5060      1.5367      1.5584      1.5693      1.5688      1.5568      1.5341      1.5023    
  1.4637      1.4211      1.3773      1.3358      1.2993      1.2713      1.2541      1.2498      1.2608      1.2879    
  1.4948      1.6152      1.7536      1.9077      2.0739      2.2479      2.4239      2.5956      2.7565      2.8997    
  3.0191      3.1089      3.1649      3.1843      3.1662      3.1113      3.0226      2.9043      2.7620      2.6021    
  2.4313      2.2562      2.0830      1.9173      1.7635      1.6253      1.5048      1.4036      1.3220      1.2595    
  1.2150      1.1867      1.1726      1.1703      1.1772      1.1905      1.2076      1.2257      1.2426      1.2562    
  1.2648      1.2674      1.2637      1.2541      1.2396      1.2218      1.2027      1.1847      1.1706      1.1629    
  1.1646      1.1780      1.2056      1.2499      1.3119      1.3935      1.7831      1.9742      2.1862      2.4148    
  2.6551      2.9002      3.1426      3.3738      3.5848      3.7666      3.9112      4.0120      4.0640      4.0646    
  4.0138      3.9144      3.7709      3.5901      3.3802      3.1499      2.9082      2.6636      2.4240      2.1958    
  1.9843      1.7933      1.6253      1.4811      1.3608      1.2632      1.1867      1.1291      1.0877      1.0601    
  1.0434      1.0352      1.0328      1.0339      1.0366      1.0392      1.0405      1.0401      1.0377      1.0342    
  1.0306      1.0285      1.0300      1.0374      1.0532      1.0802      1.1208      1.1780      1.2541      1.3511    
  1.4713      1.6152      2.2252      2.5039      2.8064      3.1273      3.4586      3.7910      4.1133      4.4139    
  4.6807      4.9025      5.0691      5.1726      5.2080      5.1737      5.0714      4.9059      4.6852      4.4194    
  4.1198      3.7984      3.4670      3.1363      2.8159      2.5135      2.2350      1.9843      1.7635      1.5733    
  1.4127      1.2800      1.1726      1.0877      1.0222     0.97297     0.93715     0.91203     0.89512     0.88431    
 0.87781     0.87429     0.87291     0.87339     0.87604     0.88163     0.89156     0.90761     0.93195     0.96694    
  1.0155      1.0802      1.1646      1.2713      1.4034      1.5638      1.7536      1.9743      2.8592      3.2488    
  3.6665      4.1029      4.5468      4.9846      5.4018      5.7822      6.1102      6.3710      6.5525      6.6460    
  6.6466      6.5544      6.3740      6.1143      5.7874      5.4079      4.9916      4.5543      4.1111      3.6753    
  3.2584      2.8690      2.5135      2.1958      1.9173      1.6778      1.4755      1.3075      1.1703      1.0601    
 0.97297     0.90537     0.85398     0.81586     0.78848     0.76974     0.75803     0.75226     0.75184     0.75679    
 0.76765     0.78558     0.81214     0.84943     0.89998     0.96685      1.0532      1.1629      1.2994      1.4670    
  1.6689      1.9078      2.1863      2.5039      3.7391      4.2700      4.8321      5.4130      5.9962      6.5631    
  7.0927      7.5637      7.9556      8.2504      8.4335      8.4959      8.4343      8.2522      7.9585      7.5675    
  7.0975      6.5690      6.0032      5.4208      4.8406      4.2787      3.7481      3.2584      2.8159      2.4240    
  2.0830      1.7916      1.5464      1.3432      1.1772      1.0434     0.93715     0.85398     0.79008     0.74220    
 0.70765     0.68437     0.67084     0.66617     0.67007     0.68283     0.70536     0.73910     0.78621     0.84936    
 0.93184      1.0374      1.1706      1.3358      1.5386      1.7832      2.0741      2.4150      2.8065      3.2490    
  4.9321      5.6434      6.3897      7.1515      7.9060      8.6270      9.2868      9.8571      10.312      10.628    
  10.791      10.792      10.630      10.314      9.8604      9.2910      8.6320      7.9116      7.1578      6.3968    
  5.6515      4.9407      4.2787      3.6753      3.1363      2.6636      2.2562      1.9106      1.6219      1.3840    
  1.1905      1.0352     0.91203     0.81586     0.74220     0.68741     0.64864     0.62380     0.61154     0.61119    
 0.62274     0.64687     0.68491     0.73900     0.81193     0.90739      1.0298      1.1845      1.3773      1.6147    
  1.9028      2.2481      2.6553      3.1275      3.6668      4.2702      6.5276      7.4686      8.4455      9.4319    
  10.396      11.300      12.108      12.782      13.290      13.606      13.713      13.606      13.291      12.784    
  12.110      11.304      10.400      9.4375      8.4517      7.4750      6.5346      5.6515      4.8406      4.1111    
  3.4670      2.9082      2.4313      2.0304      1.6983      1.4268      1.2076      1.0328     0.89512     0.78848    
 0.70765     0.64864     0.60842     0.58495     0.57704     0.58430     0.60713     0.64668     0.70505     0.78518    
 0.89118      1.0281      1.2024      1.4209      1.6920      2.0235      2.4241      2.9005      3.4590      4.1033    
  4.8325      5.6437      8.6351      9.8673      11.135      12.398      13.611      14.725      15.691      16.463    
  17.002      17.278      17.279      17.003      16.465      15.693      14.727      13.613      12.401      11.139    
  9.8727      8.6411      7.4750      6.3968      5.4208      4.5543      3.7984      3.1499      2.6021      2.1461    
  1.7718      1.4685      1.2257      1.0339     0.88431     0.76974     0.68437     0.62380     0.58495     0.56584    
 0.56555     0.58407     0.62233     0.68230     0.76705     0.88104      1.0300      1.2213      1.4634      1.7662    
  2.1400      2.5958      3.1430      3.7915      4.5474      5.4137      6.3903      7.4689      11.395      12.992    
  14.614      16.208      17.710      19.054      20.179      21.026      21.553      21.732      21.553      21.025    
  20.178      19.054      17.711      16.210      14.617      12.995      11.398      9.8727      8.4517      7.1578    
  6.0032      4.9916      4.1198      3.3802      2.7620      2.2526      1.8384      1.5060      1.2426      1.0366    
 0.87781     0.75803     0.67084     0.61154     0.57704     0.56555     0.57651     0.61049     0.66925     0.75589    
 0.87514      1.0333      1.2389      1.5017      1.8337      2.2474      2.7566      3.3744      4.1140      4.9856    
  5.9973      7.1526      8.4464      9.8680      14.969      17.013      19.061      21.034      22.848      24.421    
  25.676      26.552      27.001      27.001      26.551      25.676      24.420      22.847      21.032      19.060    
  17.014      14.970      12.995      11.139      9.4375      7.9116      6.5690      5.4079      4.4194      3.5901    
  2.9043      2.3448      1.8945      1.5367      1.2562      1.0392     0.87429     0.75226     0.66617     0.61119    
 0.58430     0.58407     0.61049     0.66500     0.75060     0.87215      1.0366      1.2531      1.5332      1.8906    
  2.3405      2.8998      3.5853      4.4147      5.4030      6.5646      7.9077      9.4336      11.136      12.993    
  19.538      22.109      24.633      27.011      29.136      30.906      32.234      33.055      33.332      33.053    
  32.231      30.902      29.132      27.008      24.631      22.106      19.536      17.014      14.617      12.401    
  10.400      8.6320      7.0975      5.7874      4.6852      3.7709      3.0226      2.4184      1.9369      1.5584    
  1.2648      1.0405     0.87291     0.75184     0.67007     0.62274     0.60713     0.62233     0.66925     0.75060    
 0.87125      1.0385      1.2623      1.5555      1.9337      2.4148      3.0190      3.7670      4.6816      5.7837    
  7.0946      8.6293      10.398      12.400      14.617      17.015      25.263      28.417      31.441      34.190    
  36.529      38.355      39.601      40.231      40.230      39.598      38.351      36.523      34.183      31.432    
  28.409      25.259      22.106      19.060      16.210      13.613      11.304      9.2910      7.5675      6.1143    
  4.9059      3.9144      3.1113      2.4694      1.9632      1.5693      1.2674      1.0401     0.87339     0.75679    
 0.68283     0.64687     0.64668     0.68230     0.75589     0.87215      1.0385      1.2655      1.5671      1.9607    
  2.4667      3.1085      3.9114      4.9033      6.1117      7.5658      9.2896      11.304      13.614      16.211    
  19.064      22.111      32.249      35.941      39.297      42.161      44.432      46.063      47.040      47.364    
  47.037      46.057      44.423      42.150      39.287      35.931      32.237      28.409      24.631      21.032    
  17.711      14.727      12.110      9.8604      7.9585      6.3740      5.0714      4.0138      3.1662      2.4954    
  1.9718      1.5688      1.2637      1.0377     0.87604     0.76765     0.70536     0.68491     0.70505     0.76705    
 0.87514      1.0366      1.2623      1.5671      1.9698      2.4933      3.1641      4.0118      5.0697      6.3726    
  7.9580      9.8605      12.112      14.730      17.715      21.039      24.637      28.419      40.248      44.114    
  47.375      49.949      51.823      53.029      53.615      53.613      53.024      51.814      49.938      47.361    
  44.098      40.232      35.931      31.432      27.008      22.847      19.054      15.693      12.784      10.314    
  8.2522      6.5544      5.1737      4.0646      3.1843      2.4948      1.9620      1.5568      1.2541      1.0342    
 0.88163     0.78558     0.73910     0.73900     0.78518     0.88104      1.0333      1.2531      1.5555      1.9607    