    1    1    1    1
  0.6156630E+02  0.4432200E-09  0.4432200E-09  0.4432200E-09  0.1000000E-15
  1.000000000000000E-004
  CAR 
 Xe_FCC                                  
      8    152     32
 
  0.5000000E+00  0.5000000E+00  0.5000000E+00  0.0000000E+00
    1      -16.965402   1.000000
    2       -5.944841   1.000000
    3       -4.619293   1.000000
    4       -4.619292   1.000000
    5        3.983430   0.000000
    6        6.703141   0.000000
    7        6.703145   0.000000
    8        7.033417   0.000000
    9        9.770559   0.000000
   10       11.078041   0.000000
   11       11.078043   0.000000
   12       12.973606   0.000000
   13       13.007649   0.000000
   14       13.007652   0.000000
   15       17.626985   0.000000
   16       18.204987   0.000000
   17       18.204989   0.000000
   18       19.303314   0.000000
   19       19.923053   0.000000
   20       20.533701   0.000000
   21       20.533709   0.000000
   22       21.340070   0.000000
   23       22.086616   0.000000
   24       22.086617   0.000000
   25       24.809852   0.000000
   26       24.923164   0.000000
   27       25.976297   0.000000
   28       25.976304   0.000000
   29       26.357677   0.000000
   30       26.357683   0.000000
   31       27.581959   0.000000
   32       28.429028   0.000000
 
  0.4750000E+00  0.4750000E+00  0.4750000E+00  0.0000000E+00
    1      -16.966823   1.000000
    2       -5.937155   1.000000
    3       -4.618232   1.000000
    4       -4.618231   1.000000
    5        3.984176   0.000000
    6        6.709457   0.000000
    7        6.709460   0.000000
    8        7.016845   0.000000
    9        9.751897   0.000000
   10       11.005083   0.000000
   11       11.005085   0.000000
   12       13.036543   0.000000
   13       13.095654   0.000000
   14       13.095657   0.000000
   15       17.454214   0.000000
   16       18.113506   0.000000
   17       18.113508   0.000000
   18       19.462638   0.000000
   19       19.920971   0.000000
   20       20.600971   0.000000
   21       20.600979   0.000000
   22       21.284361   0.000000
   23       22.092428   0.000000
   24       22.092429   0.000000
   25       24.683279   0.000000
   26       25.039533   0.000000
   27       25.904712   0.000000
   28       25.904719   0.000000
   29       26.436863   0.000000
   30       26.436869   0.000000
   31       27.617642   0.000000
   32       28.501662   0.000000
 
  0.4500000E+00  0.4500000E+00  0.4500000E+00  0.0000000E+00
    1      -16.970807   1.000000
    2       -5.914175   1.000000
    3       -4.615066   1.000000
    4       -4.615065   1.000000
    5        3.985968   0.000000
    6        6.728289   0.000000
    7        6.728292   0.000000
    8        6.967557   0.000000
    9        9.704298   0.000000
   10       10.817570   0.000000
   11       10.817571   0.000000
   12       13.216704   0.000000
   13       13.328320   0.000000
   14       13.328322   0.000000
   15       17.057082   0.000000
   16       17.878602   0.000000
   17       17.878603   0.000000
   18       19.809912   0.000000
   19       19.905597   0.000000
   20       20.770386   0.000000
   21       20.770393   0.000000
   22       21.132344   0.000000
   23       22.119494   0.000000
   24       22.119495   0.000000
   25       24.521499   0.000000
   26       25.181181   0.000000
   27       25.771713   0.000000
   28       25.771719   0.000000
   29       26.602270   0.000000
   30       26.602276   0.000000
   31       27.697682   0.000000
   32       28.730343   0.000000
 
  0.4250000E+00  0.4250000E+00  0.4250000E+00  0.0000000E+00
    1      -16.977244   1.000000
    2       -5.876247   1.000000
    3       -4.609855   1.000000
    4       -4.609854   1.000000
    5        3.987282   0.000000
    6        6.759289   0.000000
    7        6.759293   0.000000
    8        6.887381   0.000000
    9        9.647209   0.000000
   10       10.569538   0.000000
   11       10.569539   0.000000
   12       13.492972   0.000000
   13       13.651473   0.000000
   14       13.651475   0.000000
   15       16.575461   0.000000
   16       17.551113   0.000000
   17       17.551113   0.000000
   18       19.888860   0.000000
   19       20.150727   0.000000
   20       20.952329   0.000000
   21       20.977730   0.000000
   22       20.977736   0.000000
   23       22.176616   0.000000
   24       22.176616   0.000000
   25       24.375379   0.000000
   26       25.308293   0.000000
   27       25.633023   0.000000
   28       25.633030   0.000000
   29       26.801298   0.000000
   30       26.801304   0.000000
   31       27.790844   0.000000
   32       29.120834   0.000000
 
  0.4000000E+00  0.4000000E+00  0.4000000E+00  0.0000000E+00
    1      -16.985883   1.000000
    2       -5.823950   1.000000
    3       -4.602695   1.000000
    4       -4.602694   1.000000
    5        3.985466   0.000000
    6        6.780838   0.000000
    7        6.801835   0.000000
    8        6.801839   0.000000
    9        9.600545   0.000000
   10       10.298173   0.000000
   11       10.298174   0.000000
   12       13.839439   0.000000
   13       14.027562   0.000000
   14       14.027564   0.000000
   15       16.069426   0.000000
   16       17.172692   0.000000
   17       17.172693   0.000000
   18       19.878078   0.000000
   19       20.186093   0.000000
   20       21.002844   0.000000
   21       21.167373   0.000000
   22       21.167377   0.000000
   23       22.277893   0.000000
   24       22.277894   0.000000
   25       24.261994   0.000000
   26       25.436089   0.000000
   27       25.500070   0.000000
   28       25.500076   0.000000
   29       27.018882   0.000000
   30       27.018888   0.000000
   31       27.889008   0.000000
   32       29.645007   0.000000
 
  0.3750000E+00  0.3750000E+00  0.3750000E+00  0.0000000E+00
    1      -16.996497   1.000000
    2       -5.758049   1.000000
    3       -4.593754   1.000000
    4       -4.593753   1.000000
    5        3.976606   0.000000
    6        6.656199   0.000000
    7        6.854933   0.000000
    8        6.854937   0.000000
    9        9.578182   0.000000
   10       10.023881   0.000000
   11       10.023882   0.000000
   12       14.222241   0.000000
   13       14.435250   0.000000
   14       14.435252   0.000000
   15       15.576691   0.000000
   16       16.769118   0.000000
   17       16.769119   0.000000
   18       19.864914   0.000000
   19       19.871767   0.000000
   20       21.309010   0.000000
   21       21.309013   0.000000
   22       21.326285   0.000000
   23       22.431988   0.000000
   24       22.431990   0.000000
   25       24.176006   0.000000
   26       25.374018   0.000000
   27       25.374025   0.000000
   28       25.567842   0.000000
   29       27.244939   0.000000
   30       27.244945   0.000000
   31       28.008224   0.000000
   32       30.272225   0.000000
 
  0.3500000E+00  0.3500000E+00  0.3500000E+00  0.0000000E+00
    1      -17.008980   1.000000
    2       -5.679602   1.000000
    3       -4.583232   1.000000
    4       -4.583231   1.000000
    5        3.955491   0.000000
    6        6.525373   0.000000
    7        6.917098   0.000000
    8        6.917101   0.000000
    9        9.586905   0.000000
   10        9.758267   0.000000
   11        9.758267   0.000000
   12       14.519801   0.000000
   13       14.859309   0.000000
   14       14.859310   0.000000
   15       15.214227   0.000000
   16       16.357380   0.000000
   17       16.357381   0.000000
   18       19.444546   0.000000
   19       19.846219   0.000000
   20       21.393314   0.000000
   21       21.393316   0.000000
   22       21.682691   0.000000
   23       22.625697   0.000000
   24       22.625700   0.000000
   25       24.117972   0.000000
   26       25.253988   0.000000
   27       25.253994   0.000000
   28       25.690711   0.000000
   29       27.465148   0.000000
   30       27.465153   0.000000
   31       28.167616   0.000000
   32       30.443562   0.000000
 
  0.3250000E+00  0.3250000E+00  0.3250000E+00  0.0000000E+00
    1      -17.022761   1.000000
    2       -5.589823   1.000000
    3       -4.571360   1.000000
    4       -4.571359   1.000000
    5        3.916034   0.000000
    6        6.402495   0.000000
    7        6.986129   0.000000
    8        6.986132   0.000000
    9        9.509058   0.000000
   10        9.509059   0.000000
   11        9.628181   0.000000
   12       14.319596   0.000000
   13       15.269300   0.000000
   14       15.269301   0.000000
   15       15.390600   0.000000
   16       15.970985   0.000000
   17       15.970986   0.000000
   18       18.979985   0.000000
   19       19.829170   0.000000
   20       21.440893   0.000000
   21       21.440895   0.000000
   22       22.015620   0.000000
   23       22.840948   0.000000
   24       22.840950   0.000000
   25       24.069607   0.000000
   26       25.144800   0.000000
   27       25.144807   0.000000
   28       25.808763   0.000000
   29       27.667862   0.000000
   30       27.667866   0.000000
   31       28.385804   0.000000
   32       30.442872   0.000000
 
  0.3000000E+00  0.3000000E+00  0.3000000E+00  0.0000000E+00
    1      -17.037595   1.000000
    2       -5.490241   1.000000
    3       -4.558415   1.000000
    4       -4.558414   1.000000
    5        3.852357   0.000000
    6        6.301659   0.000000
    7        7.058795   0.000000
    8        7.058799   0.000000
    9        9.282648   0.000000
   10        9.282648   0.000000
   11        9.700400   0.000000
   12       13.869033   0.000000
   13       15.368532   0.000000
   14       15.368534   0.000000
   15       15.851618   0.000000
   16       15.906441   0.000000
   17       15.906442   0.000000
   18       18.504373   0.000000
   19       19.810933   0.000000
   20       21.465021   0.000000
   21       21.465022   0.000000
   22       22.307880   0.000000
   23       23.054023   0.000000
   24       23.054026   0.000000
   25       24.034559   0.000000
   26       25.044266   0.000000
   27       25.044272   0.000000
   28       25.902649   0.000000
   29       27.828376   0.000000
   30       27.828379   0.000000
   31       28.674489   0.000000
   32       30.504593   0.000000
 
  0.2750000E+00  0.2750000E+00  0.2750000E+00  0.0000000E+00
    1      -17.052982   1.000000
    2       -5.382656   1.000000
    3       -4.544680   1.000000
    4       -4.544679   1.000000
    5        3.760614   0.000000
    6        6.234222   0.000000
    7        7.130411   0.000000
    8        7.130414   0.000000
    9        9.085534   0.000000
   10        9.085535   0.000000
   11        9.800446   0.000000
   12       13.394345   0.000000
   13       15.015774   0.000000
   14       15.015777   0.000000
   15       16.305344   0.000000
   16       16.305346   0.000000
   17       16.357141   0.000000
   18       18.039673   0.000000
   19       19.794876   0.000000
   20       21.478332   0.000000
   21       21.478334   0.000000
   22       22.559836   0.000000
   23       23.264128   0.000000
   24       23.264131   0.000000
   25       24.007023   0.000000
   26       24.956228   0.000000
   27       24.956235   0.000000
   28       25.968221   0.000000
   29       27.929068   0.000000
   30       27.929071   0.000000
   31       29.034397   0.000000
   32       30.648996   0.000000
 
  0.2500000E+00  0.2500000E+00  0.2500000E+00  0.0000000E+00
    1      -17.068656   1.000000
    2       -5.269115   1.000000
    3       -4.530481   1.000000
    4       -4.530480   1.000000
    5        3.640829   0.000000
    6        6.206598   0.000000
    7        7.194469   0.000000
    8        7.194473   0.000000
    9        8.925144   0.000000
   10        8.925145   0.000000
   11        9.924394   0.000000
   12       12.928318   0.000000
   13       14.618243   0.000000
   14       14.618245   0.000000
   15       16.758032   0.000000
   16       16.758033   0.000000
   17       16.803325   0.000000
   18       17.665964   0.000000
   19       19.777939   0.000000
   20       21.481729   0.000000
   21       21.481730   0.000000
   22       22.777731   0.000000
   23       23.458335   0.000000
   24       23.458338   0.000000
   25       23.999704   0.000000
   26       24.878398   0.000000
   27       24.878404   0.000000
   28       26.002551   0.000000
   29       27.937136   0.000000
   30       27.937138   0.000000
   31       29.446202   0.000000
   32       30.879709   0.000000
 
  0.2250000E+00  0.2250000E+00  0.2250000E+00  0.0000000E+00
    1      -17.084337   1.000000
    2       -5.151935   1.000000
    3       -4.516192   1.000000
    4       -4.516191   1.000000
    5        3.497286   0.000000
    6        6.219727   0.000000
    7        7.242904   0.000000
    8        7.242907   0.000000
    9        8.809801   0.000000
   10        8.809802   0.000000
   11       10.067244   0.000000
   12       12.481783   0.000000
   13       14.223539   0.000000
   14       14.223542   0.000000
   15       16.800359   0.000000
   16       17.214680   0.000000
   17       17.214681   0.000000
   18       17.766913   0.000000
   19       19.758535   0.000000
   20       21.493436   0.000000
   21       21.493438   0.000000
   22       22.948327   0.000000
   23       23.612144   0.000000
   24       23.612147   0.000000
   25       23.980822   0.000000
   26       24.813493   0.000000
   27       24.813499   0.000000
   28       26.005714   0.000000
   29       27.869140   0.000000
   30       27.869142   0.000000
   31       29.857177   0.000000
   32       31.186485   0.000000
 
  0.2000000E+00  0.2000000E+00  0.2000000E+00  0.0000000E+00
    1      -17.099221   1.000000
    2       -5.033762   1.000000
    3       -4.502126   1.000000
    4       -4.502125   1.000000
    5        3.337735   0.000000
    6        6.270241   0.000000
    7        7.268008   0.000000
    8        7.268012   0.000000
    9        8.746775   0.000000
   10        8.746776   0.000000
   11       10.221289   0.000000
   12       12.064505   0.000000
   13       13.841021   0.000000
   14       13.841024   0.000000
   15       16.416479   0.000000
   16       17.664330   0.000000
   17       17.664332   0.000000
   18       18.274161   0.000000
   19       19.747694   0.000000
   20       21.524817   0.000000
   21       21.524819   0.000000
   22       23.092951   0.000000
   23       23.744488   0.000000
   24       23.744491   0.000000
   25       23.981059   0.000000
   26       24.768522   0.000000
   27       24.768527   0.000000
   28       25.985039   0.000000
   29       27.744124   0.000000
   30       27.744126   0.000000
   31       30.159279   0.000000
   32       31.558299   0.000000
 
  0.1750000E+00  0.1750000E+00  0.1750000E+00  0.0000000E+00
    1      -17.113559   1.000000
    2       -4.917576   1.000000
    3       -4.488686   1.000000
    4       -4.488685   1.000000
    5        3.171049   0.000000
    6        6.352229   0.000000
    7        7.266194   0.000000
    8        7.266197   0.000000
    9        8.738428   0.000000
   10        8.738429   0.000000
   11       10.370598   0.000000
   12       11.693461   0.000000
   13       13.474957   0.000000
   14       13.474960   0.000000
   15       15.981291   0.000000
   16       18.093845   0.000000
   17       18.093846   0.000000
   18       18.855549   0.000000
   19       19.729846   0.000000
   20       21.559268   0.000000
   21       21.559270   0.000000
   22       23.207207   0.000000
   23       23.827175   0.000000
   24       23.827177   0.000000
   25       23.963905   0.000000
   26       24.749002   0.000000
   27       24.749007   0.000000
   28       25.940975   0.000000
   29       27.547691   0.000000
   30       27.547693   0.000000
   31       30.169039   0.000000
   32       31.959647   0.000000
 
  0.1500000E+00  0.1500000E+00  0.1500000E+00  0.0000000E+00
    1      -17.126591   1.000000
    2       -4.806543   1.000000
    3       -4.476195   1.000000
    4       -4.476194   1.000000
    5        3.006390   0.000000
    6        6.458633   0.000000
    7        7.240823   0.000000
    8        7.240827   0.000000
    9        8.779204   0.000000
   10        8.779205   0.000000
   11       10.473210   0.000000
   12       11.411603   0.000000
   13       13.130103   0.000000
   14       13.130106   0.000000
   15       15.549628   0.000000
   16       18.495018   0.000000
   17       18.495019   0.000000
   18       19.455689   0.000000
   19       19.713548   0.000000
   20       21.617674   0.000000
   21       21.617676   0.000000
   22       23.315677   0.000000
   23       23.867699   0.000000
   24       23.867701   0.000000
   25       23.952111   0.000000
   26       24.761303   0.000000
   27       24.761308   0.000000
   28       25.876022   0.000000
   29       27.311349   0.000000
   30       27.311352   0.000000
   31       29.862786   0.000000
   32       32.377111   0.000000
 
  0.1250000E+00  0.1250000E+00  0.1250000E+00  0.0000000E+00
    1      -17.138514   1.000000
    2       -4.704183   1.000000
    3       -4.464992   1.000000
    4       -4.464991   1.000000
    5        2.851916   0.000000
    6        6.581550   0.000000
    7        7.200560   0.000000
    8        7.200564   0.000000
    9        8.856809   0.000000
   10        8.856810   0.000000
   11       10.442249   0.000000
   12       11.306772   0.000000
   13       12.811626   0.000000
   14       12.811629   0.000000
   15       15.135219   0.000000
   16       18.843851   0.000000
   17       18.843852   0.000000
   18       19.698532   0.000000
   19       20.056929   0.000000
   20       21.694461   0.000000
   21       21.694463   0.000000
   22       23.384106   0.000000
   23       23.856099   0.000000
   24       23.856101   0.000000
   25       23.923761   0.000000
   26       24.803571   0.000000
   27       24.803576   0.000000
   28       25.788038   0.000000
   29       27.029121   0.000000
   30       27.029124   0.000000
   31       29.413213   0.000000
   32       32.767945   0.000000
 
  0.1000000E+00  0.1000000E+00  0.1000000E+00  0.0000000E+00
    1      -17.148521   1.000000
    2       -4.613946   1.000000
    3       -4.455367   1.000000
    4       -4.455366   1.000000
    5        2.714907   0.000000
    6        6.711952   0.000000
    7        7.155247   0.000000
    8        7.155250   0.000000
    9        8.955939   0.000000
   10        8.955940   0.000000
   11       10.267040   0.000000
   12       11.390430   0.000000
   13       12.526294   0.000000
   14       12.526298   0.000000
   15       14.747513   0.000000
   16       19.140364   0.000000
   17       19.140365   0.000000
   18       19.686270   0.000000
   19       20.646297   0.000000
   20       21.805873   0.000000
   21       21.805874   0.000000
   22       23.431372   0.000000
   23       23.817282   0.000000
   24       23.817284   0.000000
   25       23.885345   0.000000
   26       24.873913   0.000000
   27       24.873917   0.000000
   28       25.675633   0.000000
   29       26.743048   0.000000
   30       26.743051   0.000000
   31       28.948158   0.000000
   32       33.101419   0.000000
 
  0.7500000E-01  0.7500000E-01  0.7500000E-01  0.0000000E+00
    1      -17.156539   1.000000
    2       -4.539305   1.000000
    3       -4.447588   1.000000
    4       -4.447587   1.000000
    5        2.601512   0.000000
    6        6.838710   0.000000
    7        7.112944   0.000000
    8        7.112946   0.000000
    9        9.060393   0.000000
   10        9.060394   0.000000
   11       10.052011   0.000000
   12       11.557572   0.000000
   13       12.283157   0.000000
   14       12.283161   0.000000
   15       14.397966   0.000000
   16       19.370640   0.000000
   17       19.370640   0.000000
   18       19.676471   0.000000
   19       21.205672   0.000000
   20       21.940227   0.000000
   21       21.940229   0.000000
   22       23.467707   0.000000
   23       23.758251   0.000000
   24       23.758253   0.000000
   25       23.828667   0.000000
   26       24.967513   0.000000
   27       24.967516   0.000000
   28       25.540091   0.000000
   29       26.457915   0.000000
   30       26.457917   0.000000
   31       28.535916   0.000000
   32       33.321835   0.000000
 
  0.5000000E-01  0.5000000E-01  0.5000000E-01  0.0000000E+00
    1      -17.162224   1.000000
    2       -4.483353   1.000000
    3       -4.441860   1.000000
    4       -4.441860   1.000000
    5        2.516756   0.000000
    6        6.947858   0.000000
    7        7.079298   0.000000
    8        7.079301   0.000000
    9        9.153471   0.000000
   10        9.153472   0.000000
   11        9.864826   0.000000
   12       11.735476   0.000000
   13       12.093983   0.000000
   14       12.093987   0.000000
   15       14.105140   0.000000
   16       19.538307   0.000000
   17       19.538307   0.000000
   18       19.670080   0.000000
   19       21.705079   0.000000
   20       22.082976   0.000000
   21       22.082978   0.000000
   22       23.496748   0.000000
   23       23.690900   0.000000
   24       23.690901   0.000000
   25       23.750478   0.000000
   26       25.081780   0.000000
   27       25.081782   0.000000
   28       25.398471   0.000000
   29       26.198774   0.000000
   30       26.198777   0.000000
   31       28.218829   0.000000
   32       33.453280   0.000000
 
  0.2500000E-01  0.2500000E-01  0.2500000E-01  0.0000000E+00
    1      -17.165761   1.000000
    2       -4.448687   1.000000
    3       -4.438362   1.000000
    4       -4.438361   1.000000
    5        2.464325   0.000000
    6        7.023237   0.000000
    7        7.057843   0.000000
    8        7.057846   0.000000
    9        9.218531   0.000000
   10        9.218532   0.000000
   11        9.739000   0.000000
   12       11.875186   0.000000
   13       11.972332   0.000000
   14       11.972336   0.000000
   15       13.900249   0.000000
   16       19.633556   0.000000
   17       19.633556   0.000000
   18       19.665696   0.000000
   19       22.084625   0.000000
   20       22.193408   0.000000
   21       22.193410   0.000000
   22       23.513851   0.000000
   23       23.630956   0.000000
   24       23.630957   0.000000
   25       23.656774   0.000000
   26       25.187625   0.000000
   27       25.187627   0.000000
   28       25.284156   0.000000
   29       25.993203   0.000000
   30       25.993206   0.000000
   31       28.021934   0.000000
   32       33.482041   0.000000
 
  0.0000000E+00  0.0000000E+00  0.0000000E+00  0.0000000E+00
    1      -17.166948   1.000000
    2       -4.437185   1.000000
    3       -4.437184   1.000000
    4       -4.436941   1.000000
    5        2.446581   0.000000
    6        7.050384   0.000000
    7        7.050492   0.000000
    8        7.050494   0.000000
    9        9.242027   0.000000
   10        9.242028   0.000000
   11        9.694587   0.000000
   12       11.929672   0.000000
   13       11.930142   0.000000
   14       11.930146   0.000000
   15       13.824510   0.000000
   16       19.664225   0.000000
   17       19.664718   0.000000
   18       19.664719   0.000000
   19       22.236472   0.000000
   20       22.236474   0.000000
   21       22.236883   0.000000
   22       23.519523   0.000000
   23       23.606585   0.000000
   24       23.606586   0.000000
   25       23.606590   0.000000
   26       25.238738   0.000000
   27       25.238741   0.000000
   28       25.239516   0.000000
   29       25.907297   0.000000
   30       25.907300   0.000000
   31       27.955602   0.000000
   32       33.490655   0.000000
 
  0.0000000E+00  0.2500000E-01  0.2500000E-01  0.0000000E+00
    1      -17.165365   1.000000
    2       -4.448791   1.000000
    3       -4.440742   1.000000
    4       -4.440579   1.000000
    5        2.470250   0.000000
    6        7.008633   0.000000
    7        7.063214   0.000000
    8        7.063288   0.000000
    9        9.172088   0.000000
   10        9.249494   0.000000
   11        9.753713   0.000000
   12       11.935249   0.000000
   13       11.946331   0.000000
   14       11.946643   0.000000
   15       13.926620   0.000000
   16       19.630520   0.000000
   17       19.640659   0.000000
   18       19.640971   0.000000
   19       22.114205   0.000000
   20       22.114484   0.000000
   21       22.167257   0.000000
   22       23.511972   0.000000
   23       23.612651   0.000000
   24       23.666398   0.000000
   25       23.666408   0.000000
   26       25.045145   0.000000
   27       25.319800   0.000000
   28       25.320316   0.000000
   29       25.919177   0.000000
   30       26.081642   0.000000
   31       28.044437   0.000000
   32       33.477855   0.000000
 
  0.0000000E+00  0.5000000E-01  0.5000000E-01  0.0000000E+00
    1      -17.160648   1.000000
    2       -4.483171   1.000000
    3       -4.451301   1.000000
    4       -4.451140   1.000000
    5        2.540221   0.000000
    6        6.893317   0.000000
    7        7.101490   0.000000
    8        7.101566   0.000000
    9        8.978491   0.000000
   10        9.271857   0.000000
   11        9.920902   0.000000
   12       11.955659   0.000000
   13       11.995716   0.000000
   14       11.996029   0.000000
   15       14.212198   0.000000
   16       19.530399   0.000000
   17       19.563703   0.000000
   18       19.563981   0.000000
   19       21.834224   0.000000
   20       21.834535   0.000000
   21       21.961383   0.000000
   22       23.489529   0.000000
   23       23.630499   0.000000
   24       23.770995   0.000000
   25       23.771027   0.000000
   26       24.719643   0.000000
   27       25.555978   0.000000
   28       25.556490   0.000000
   29       25.953556   0.000000
   30       26.345026   0.000000
   31       28.308786   0.000000
   32       33.428138   0.000000
 
  0.0000000E+00  0.7500000E-01  0.7500000E-01  0.0000000E+00
    1      -17.152987   1.000000
    2       -4.538328   1.000000
    3       -4.468534   1.000000
    4       -4.468373   1.000000
    5        2.653434   0.000000
    6        6.726913   0.000000
    7        7.164938   0.000000
    8        7.165015   0.000000
    9        8.698331   0.000000
   10        9.309009   0.000000
   11       10.173641   0.000000
   12       11.998563   0.000000
   13       12.077653   0.000000
   14       12.077964   0.000000
   15       14.636979   0.000000
   16       19.367977   0.000000
   17       19.414550   0.000000
   18       19.414766   0.000000
   19       21.522109   0.000000
   20       21.522477   0.000000
   21       21.628889   0.000000
   22       23.452123   0.000000
   23       23.659766   0.000000
   24       23.834250   0.000000
   25       23.834309   0.000000
   26       24.410129   0.000000
   27       25.916412   0.000000
   28       25.916923   0.000000
   29       26.006287   0.000000
   30       26.548110   0.000000
   31       28.720396   0.000000
   32       33.280362   0.000000
 
  0.0000000E+00  0.1000000E+00  0.1000000E+00  0.0000000E+00
    1      -17.142215   1.000000
    2       -4.611325   1.000000
    3       -4.491890   1.000000
    4       -4.491731   1.000000
    5        2.805005   0.000000
    6        6.531338   0.000000
    7        7.253082   0.000000
    8        7.253160   0.000000
    9        8.370280   0.000000
   10        9.360767   0.000000
   11       10.489834   0.000000
   12       12.067541   0.000000
   13       12.191549   0.000000
   14       12.191857   0.000000
   15       15.159198   0.000000
   16       19.160344   0.000000
   17       19.184246   0.000000
   18       19.184387   0.000000
   19       21.196974   0.000000
   20       21.254093   0.000000
   21       21.254531   0.000000
   22       23.411706   0.000000
   23       23.700426   0.000000
   24       23.857394   0.000000
   25       23.857473   0.000000
   26       24.147934   0.000000
   27       26.081157   0.000000
   28       26.355489   0.000000
   29       26.356007   0.000000
   30       26.691058   0.000000
   31       29.210276   0.000000
   32       33.007520   0.000000
 
  0.0000000E+00  0.1250000E+00  0.1250000E+00  0.0000000E+00
    1      -17.128913   1.000000
    2       -4.698692   1.000000
    3       -4.520667   1.000000
    4       -4.520509   1.000000
    5        2.988116   0.000000
    6        6.322631   0.000000
    7        7.365251   0.000000
    8        7.365332   0.000000
    9        8.025415   0.000000
   10        9.426840   0.000000
   11       10.853171   0.000000
   12       12.163008   0.000000
   13       12.336433   0.000000
   14       12.336737   0.000000
   15       15.747841   0.000000
   16       18.861188   0.000000
   17       18.861267   0.000000
   18       18.901802   0.000000
   19       20.693095   0.000000
   20       21.060543   0.000000
   21       21.061044   0.000000
   22       23.343298   0.000000
   23       23.752594   0.000000
   24       23.841701   0.000000
   25       23.841793   0.000000
   26       23.905247   0.000000
   27       26.161028   0.000000
   28       26.795064   0.000000
   29       26.827555   0.000000
   30       26.828096   0.000000
   31       29.676852   0.000000
   32       32.538472   0.000000
 
  0.0000000E+00  0.1500000E+00  0.1500000E+00  0.0000000E+00
    1      -17.113460   1.000000
    2       -4.796737   1.000000
    3       -4.553994   1.000000
    4       -4.553838   1.000000
    5        3.193941   0.000000
    6        6.111296   0.000000
    7        7.500665   0.000000
    8        7.500750   0.000000
    9        7.687435   0.000000
   10        9.506837   0.000000
   11       11.252789   0.000000
   12       12.284414   0.000000
   13       12.510878   0.000000
   14       12.511177   0.000000
   15       16.379755   0.000000
   16       18.457682   0.000000
   17       18.457713   0.000000
   18       18.608842   0.000000
   19       20.145720   0.000000