   1   1   0   0
  0.6083477E+02  0.4414576E-09  0.4414576E-09  0.4414576E-09  0.1000000E-15
  1.000000000000000E-004
  CAR 
 Og_FCC                                  
    129.06598732    -51.99653695  301     -0.54460297      1.00000000
    -51.997  0.0000E+00  0.0000E+00
    -51.393  0.0000E+00  0.0000E+00
    -50.789  0.0000E+00  0.0000E+00
    -50.186  0.0000E+00  0.0000E+00
    -49.582  0.0000E+00  0.0000E+00
    -48.979  0.0000E+00  0.0000E+00
    -48.375  0.0000E+00  0.0000E+00
    -47.772  0.0000E+00  0.0000E+00
    -47.168  0.0000E+00  0.0000E+00
    -46.565  0.0000E+00  0.0000E+00
    -45.961  0.0000E+00  0.0000E+00
    -45.358  0.0000E+00  0.0000E+00
    -44.754  0.0000E+00  0.0000E+00
    -44.150  0.0000E+00  0.0000E+00
    -43.547  0.6628E+01  0.4000E+01
    -42.943  0.0000E+00  0.4000E+01
    -42.340  0.0000E+00  0.4000E+01
    -41.736  0.0000E+00  0.4000E+01
    -41.133  0.0000E+00  0.4000E+01
    -40.529  0.0000E+00  0.4000E+01
    -39.926  0.0000E+00  0.4000E+01
    -39.322  0.8647E+01  0.9219E+01
    -38.719  0.0000E+00  0.1000E+02
    -38.115  0.0000E+00  0.1000E+02
    -37.512  0.0000E+00  0.1000E+02
    -36.908  0.0000E+00  0.1000E+02
    -36.304  0.0000E+00  0.1000E+02
    -35.701  0.0000E+00  0.1000E+02
    -35.097  0.0000E+00  0.1000E+02
    -34.494  0.0000E+00  0.1000E+02
    -33.890  0.0000E+00  0.1000E+02
    -33.287  0.0000E+00  0.1000E+02
    -32.683  0.0000E+00  0.1000E+02
    -32.080  0.0000E+00  0.1000E+02
    -31.476  0.0000E+00  0.1000E+02
    -30.873  0.0000E+00  0.1000E+02
    -30.269  0.0000E+00  0.1000E+02
    -29.665  0.0000E+00  0.1000E+02
    -29.062  0.0000E+00  0.1000E+02
    -28.458  0.0000E+00  0.1000E+02
    -27.855  0.0000E+00  0.1000E+02
    -27.251  0.0000E+00  0.1000E+02
    -26.648  0.0000E+00  0.1000E+02
    -26.044  0.0000E+00  0.1000E+02
    -25.441  0.0000E+00  0.1000E+02
    -24.837  0.0000E+00  0.1000E+02
    -24.234  0.0000E+00  0.1000E+02
    -23.630  0.0000E+00  0.1000E+02
    -23.027  0.0000E+00  0.1000E+02
    -22.423  0.0000E+00  0.1000E+02
    -21.819  0.0000E+00  0.1000E+02
    -21.216  0.0000E+00  0.1000E+02
    -20.612  0.0000E+00  0.1000E+02
    -20.009  0.0000E+00  0.1000E+02
    -19.405  0.0000E+00  0.1000E+02
    -18.802  0.0000E+00  0.1000E+02
    -18.198  0.0000E+00  0.1000E+02
    -17.595  0.0000E+00  0.1000E+02
    -16.991  0.2421E+00  0.1015E+02
    -16.388  0.0000E+00  0.1200E+02
    -15.784  0.0000E+00  0.1200E+02
    -15.180  0.0000E+00  0.1200E+02
    -14.577  0.0000E+00  0.1200E+02
    -13.973  0.0000E+00  0.1200E+02
    -13.370  0.0000E+00  0.1200E+02
    -12.766  0.0000E+00  0.1200E+02
    -12.163  0.0000E+00  0.1200E+02
    -11.559  0.0000E+00  0.1200E+02
    -10.956  0.0000E+00  0.1200E+02
    -10.352  0.0000E+00  0.1200E+02
     -9.749  0.0000E+00  0.1200E+02
     -9.145  0.0000E+00  0.1200E+02
     -8.542  0.0000E+00  0.1200E+02
     -7.938  0.0000E+00  0.1200E+02
     -7.334  0.0000E+00  0.1200E+02
     -6.731  0.0000E+00  0.1200E+02
     -6.127  0.0000E+00  0.1200E+02
     -5.524  0.2242E-03  0.1200E+02
     -4.920  0.1509E+01  0.1386E+02
     -4.317  0.1534E-01  0.1400E+02
     -3.713  0.0000E+00  0.1400E+02
     -3.110  0.0000E+00  0.1400E+02
     -2.506  0.1159E+01  0.1470E+02
     -1.903  0.8942E+00  0.1599E+02
     -1.299  0.1732E+01  0.1760E+02
     -0.695  0.1534E+00  0.1800E+02
     -0.092  0.0000E+00  0.1800E+02
      0.512  0.0000E+00  0.1800E+02
      1.115  0.0000E+00  0.1800E+02
      1.719  0.0000E+00  0.1800E+02
      2.322  0.0000E+00  0.1800E+02
      2.926  0.1531E-01  0.1801E+02
      3.529  0.1887E-07  0.1801E+02
      4.133  0.9188E-01  0.1814E+02
      4.736  0.3215E+00  0.1833E+02
      5.340  0.1286E+01  0.1922E+02
      5.943  0.6413E+00  0.1997E+02
      6.547  0.6104E+00  0.2067E+02
      7.151  0.1197E+01  0.2203E+02
      7.754  0.7692E+00  0.2249E+02
      8.358  0.1279E+01  0.2387E+02
      8.961  0.1341E+01  0.2542E+02
      9.565  0.5446E+00  0.2583E+02
     10.168  0.1375E+01  0.2669E+02
     10.772  0.1118E+01  0.2764E+02
     11.375  0.6443E+00  0.2843E+02
     11.979  0.1155E+01  0.2957E+02
     12.582  0.9216E+00  0.3058E+02
     13.186  0.8951E+00  0.3146E+02
     13.790  0.3310E+01  0.3348E+02
     14.393  0.9759E+00  0.3476E+02
     14.997  0.3403E+00  0.3554E+02
     15.600  0.9389E+00  0.3632E+02
     16.204  0.2917E+01  0.3844E+02
     16.807  0.3901E+01  0.4160E+02
     17.411  0.1493E+01  0.4329E+02
     18.014  0.1976E+00  0.4426E+02
     18.618  0.1609E+01  0.4548E+02
     19.221  0.1114E+01  0.4615E+02
     19.825  0.1144E+01  0.4761E+02
     20.428  0.2026E+01  0.4895E+02
     21.032  0.1657E+01  0.5038E+02
     21.636  0.1484E+01  0.5183E+02
     22.239  0.1598E+01  0.5393E+02
     22.843  0.2194E+01  0.5578E+02
     23.446  0.1525E+01  0.5752E+02
     24.050  0.4445E+00  0.5802E+02
     24.653  0.1391E+01  0.5917E+02
     25.257  0.1414E+01  0.6057E+02
     25.860  0.6653E+00  0.6148E+02
     26.464  0.1692E+01  0.6329E+02
     27.067  0.1673E+01  0.6469E+02
     27.671  0.1674E+01  0.6609E+02
     28.275  0.2735E+01  0.6832E+02
     28.878  0.2460E+01  0.7051E+02
     29.482  0.1095E+01  0.7176E+02
     30.085  0.1328E+01  0.7293E+02
     30.689  0.1200E+01  0.7369E+02
     31.292  0.1197E+01  0.7502E+02
     31.896  0.3188E+01  0.7717E+02
     32.499  0.1650E+01  0.7933E+02
     33.103  0.1522E+01  0.8112E+02
     33.706  0.1811E+01  0.8294E+02
     34.310  0.1671E+01  0.8417E+02
     34.913  0.1043E+01  0.8550E+02
     35.517  0.1548E+01  0.8707E+02
     36.121  0.2057E+01  0.8883E+02
     36.724  0.1647E+01  0.8994E+02
     37.328  0.1493E+01  0.9124E+02
     37.931  0.2228E+01  0.9333E+02
     38.535  0.2761E+01  0.9546E+02
     39.138  0.1860E+01  0.9705E+02
     39.742  0.1812E+01  0.9835E+02
     40.345  0.2615E+01  0.1001E+03
     40.949  0.2029E+01  0.1019E+03
     41.552  0.1704E+01  0.1035E+03
     42.156  0.2350E+01  0.1059E+03
     42.760  0.2590E+01  0.1081E+03
     43.363  0.6984E+00  0.1088E+03
     43.967  0.2724E+01  0.1106E+03
     44.570  0.2261E+01  0.1126E+03
     45.174  0.1786E+01  0.1146E+03
     45.777  0.1901E+01  0.1164E+03
     46.381  0.1628E+01  0.1185E+03
     46.984  0.1696E+01  0.1201E+03
     47.588  0.1169E+01  0.1214E+03
     48.191  0.1472E+01  0.1228E+03
     48.795  0.1501E+01  0.1246E+03
     49.398  0.2621E+01  0.1270E+03
     50.002  0.2472E+01  0.1293E+03
     50.606  0.1562E+01  0.1312E+03
     51.209  0.2554E+01  0.1331E+03
     51.813  0.1413E+01  0.1344E+03
     52.416  0.2364E+01  0.1369E+03
     53.020  0.1793E+01  0.1382E+03
     53.623  0.2085E+01  0.1405E+03
     54.227  0.1583E+01  0.1420E+03
     54.830  0.2627E+01  0.1443E+03
     55.434  0.2583E+01  0.1460E+03
     56.037  0.4541E+00  0.1473E+03
     56.641  0.2804E+01  0.1495E+03
     57.245  0.2628E+01  0.1520E+03
     57.848  0.2694E+01  0.1542E+03
     58.452  0.2465E+01  0.1562E+03
     59.055  0.2263E+01  0.1580E+03
     59.659  0.1508E+01  0.1597E+03
     60.262  0.3108E+01  0.1618E+03
     60.866  0.3968E+01  0.1651E+03
     61.469  0.3823E+01  0.1677E+03
     62.073  0.1810E+01  0.1694E+03
     62.676  0.1345E+01  0.1707E+03
     63.280  0.2973E+01  0.1730E+03
     63.883  0.1884E+01  0.1746E+03
     64.487  0.2134E+01  0.1766E+03
     65.091  0.3365E+01  0.1792E+03
     65.694  0.2462E+01  0.1813E+03
     66.298  0.2285E+01  0.1832E+03
     66.901  0.1967E+01  0.1855E+03
     67.505  0.1479E+01  0.1871E+03
     68.108  0.2230E+01  0.1895E+03
     68.712  0.1968E+01  0.1913E+03
     69.315  0.1967E+01  0.1933E+03
     69.919  0.3077E+01  0.1958E+03
     70.522  0.1504E+01  0.1975E+03
     71.126  0.4065E+01  0.2009E+03
     71.730  0.2103E+01  0.2029E+03
     72.333  0.3318E+01  0.2052E+03
     72.937  0.2596E+01  0.2072E+03
     73.540  0.2282E+01  0.2092E+03
     74.144  0.1561E+01  0.2112E+03
     74.747  0.1898E+01  0.2137E+03
     75.351  0.2377E+01  0.2156E+03
     75.954  0.3041E+01  0.2184E+03
     76.558  0.2150E+01  0.2207E+03
     77.161  0.1288E+01  0.2222E+03
     77.765  0.2876E+01  0.2248E+03
     78.368  0.2752E+01  0.2273E+03
     78.972  0.3013E+01  0.2302E+03
     79.576  0.1724E+01  0.2319E+03
     80.179  0.2452E+01  0.2341E+03
     80.783  0.2228E+01  0.2365E+03
     81.386  0.2456E+01  0.2386E+03
     81.990  0.2366E+01  0.2410E+03
     82.593  0.2395E+01  0.2433E+03
     83.197  0.3299E+01  0.2458E+03
     83.800  0.1950E+01  0.2483E+03
     84.404  0.1972E+01  0.2501E+03
     85.007  0.2747E+01  0.2527E+03
     85.611  0.3409E+01  0.2556E+03
     86.215  0.3935E+01  0.2587E+03
     86.818  0.2192E+01  0.2609E+03
     87.422  0.1702E+01  0.2623E+03
     88.025  0.3386E+01  0.2657E+03
     88.629  0.2058E+01  0.2680E+03
     89.232  0.2149E+01  0.2700E+03
     89.836  0.3704E+01  0.2734E+03
     90.439  0.3215E+01  0.2757E+03
     91.043  0.1940E+01  0.2773E+03
     91.646  0.1761E+01  0.2797E+03
     92.250  0.3172E+01  0.2817E+03
     92.853  0.2435E+01  0.2839E+03
     93.457  0.2586E+01  0.2865E+03
     94.061  0.4027E+01  0.2896E+03
     94.664  0.2995E+01  0.2922E+03
     95.268  0.3210E+01  0.2952E+03
     95.871  0.2124E+01  0.2979E+03
     96.475  0.2211E+01  0.3004E+03
     97.078  0.2707E+01  0.3031E+03
     97.682  0.2537E+01  0.3057E+03
     98.285  0.7400E+00  0.3075E+03
     98.889  0.3603E+01  0.3102E+03
     99.492  0.2474E+01  0.3123E+03
    100.096  0.2357E+01  0.3146E+03
    100.700  0.2425E+01  0.3173E+03
    101.303  0.2020E+01  0.3194E+03
    101.907  0.3936E+01  0.3223E+03
    102.510  0.1881E+01  0.3245E+03
    103.114  0.1809E+01  0.3269E+03
    103.717  0.3353E+01  0.3302E+03
    104.321  0.2987E+01  0.3329E+03
    104.924  0.3806E+01  0.3365E+03
    105.528  0.2136E+01  0.3388E+03
    106.131  0.3145E+01  0.3423E+03
    106.735  0.3293E+01  0.3452E+03
    107.338  0.2825E+01  0.3475E+03
    107.942  0.2275E+01  0.3495E+03
    108.546  0.2763E+01  0.3520E+03
    109.149  0.3133E+01  0.3547E+03
    109.753  0.2160E+01  0.3564E+03
    110.356  0.3024E+01  0.3594E+03
    110.960  0.2688E+01  0.3616E+03
    111.563  0.2669E+01  0.3647E+03
    112.167  0.2809E+01  0.3672E+03
    112.770  0.3884E+01  0.3709E+03
    113.374  0.3014E+01  0.3742E+03
    113.977  0.3048E+01  0.3763E+03
    114.581  0.2625E+01  0.3795E+03
    115.185  0.1674E+01  0.3808E+03
    115.788  0.1600E+01  0.3822E+03
    116.392  0.3421E+00  0.3833E+03
    116.995  0.4436E+00  0.3836E+03
    117.599  0.1175E+00  0.3837E+03
    118.202  0.9126E-01  0.3839E+03
    118.806  0.1534E-01  0.3839E+03
    119.409  0.1227E+00  0.3840E+03
    120.013  0.3068E-01  0.3840E+03
    120.616  0.6452E-10  0.3840E+03
    121.220  0.4602E-01  0.3840E+03
    121.823  0.0000E+00  0.3840E+03
    122.427  0.0000E+00  0.3840E+03
    123.031  0.0000E+00  0.3840E+03
    123.634  0.0000E+00  0.3840E+03
    124.238  0.0000E+00  0.3840E+03
    124.841  0.0000E+00  0.3840E+03
    125.445  0.0000E+00  0.3840E+03
    126.048  0.0000E+00  0.3840E+03
    126.652  0.0000E+00  0.3840E+03
    127.255  0.0000E+00  0.3840E+03
    127.859  0.0000E+00  0.3840E+03
    128.462  0.0000E+00  0.3840E+03
    129.066  0.0000E+00  0.3840E+03
