<?xml version="1.0" encoding="ISO-8859-1"?>
<modeling>
 <generator>
  <i name="program" type="string">vasp </i>
  <i name="version" type="string">5.4.4.18Apr17-6-g9f103f2a35  </i>
  <i name="subversion" type="string">(build Nov 03 2018 10:20:46) complex            parallel </i>
  <i name="platform" type="string">LinuxIFC </i>
  <i name="date" type="string">2018 12 25 </i>
  <i name="time" type="string">15:17:56 </i>
 </generator>
 <incar>
  <i type="string" name="SYSTEM">   Og_FCC</i>
  <i type="string" name="PREC">accurate</i>
  <i type="string" name="ALGO">   EXACT</i>
  <i type="logical" name="ADDGRID"> T  </i>
  <i type="logical" name="LSORBIT"> T  </i>
  <i type="int" name="ISPIN">     1</i>
  <i type="int" name="MAXMIX">    50</i>
  <i type="int" name="NELM">    50</i>
  <i type="int" name="NELMDL">    -5</i>
  <i type="int" name="NELMIN">     2</i>
  <i type="int" name="IBRION">    -1</i>
  <i type="int" name="NFREE">     5</i>
  <i name="EDIFF">      0.00000001</i>
  <i name="EDIFFG">      0.00001000</i>
  <i type="int" name="NSW">     1</i>
  <i type="int" name="ISIF">     3</i>
  <i type="int" name="ISYM">     0</i>
  <i name="SYMPREC">      0.00000010</i>
  <i name="ENCUT">    300.00000000</i>
  <i type="int" name="NBANDS">   384</i>
  <i name="POTIM">      0.10000000</i>
  <i type="logical" name="LREAL"> F  </i>
  <i type="int" name="ISMEAR">     0</i>
  <i name="SIGMA">      0.05000000</i>
  <i type="int" name="NWRITE">     2</i>
  <i type="logical" name="LWAVE"> T  </i>
  <i type="logical" name="LCHARG"> F  </i>
  <i type="logical" name="LVTOT"> F  </i>
  <i type="logical" name="LOPTICS"> T  </i>
  <i type="logical" name="GGA_COMPAT"> F  </i>
  <v type="int" name="KPOINT_BSE">    -1     0     0     0</v>
  <i type="int" name="NELM">    50</i>
  <i type="string" name="GGA"> PE</i>
 </incar>
 <structure name="primitive_cell" >
  <crystal>
   <varray name="basis" >
    <v>       4.41457561       0.00000000       0.00000000 </v>
    <v>       2.20728780       3.82313462      -0.00000000 </v>
    <v>       2.20728780       1.27437821       3.60448589 </v>
   </varray>
   <i name="volume">     60.83477135 </i>
   <varray name="rec_basis" >
    <v>       0.22652234      -0.13078273      -0.09247736 </v>
    <v>       0.00000000       0.26156547      -0.09247736 </v>
    <v>      -0.00000000       0.00000000       0.27743208 </v>
   </varray>
  </crystal>
  <varray name="positions" >
   <v>       0.00000000       0.00000000       0.00000000 </v>
  </varray>
 </structure>
 <varray name="primitive_index" >
  <v type="int" >        1 </v>
 </varray>
 <kpoints>
  <generation param="Gamma">
   <v type="int" name="divisions">       6        6        6 </v>
   <v name="usershift">      0.00000000       0.00000000       0.00000000 </v>
   <v name="genvec1">      0.16666667      -0.00000000       0.00000000 </v>
   <v name="genvec2">      0.00000000       0.16666667       0.00000000 </v>
   <v name="genvec3">     -0.00000000       0.00000000       0.16666667 </v>
   <v name="shift">      0.00000000       0.00000000       0.00000000 </v>
  </generation>
  <varray name="kpointlist" >
   <v>       0.00000000       0.00000000       0.00000000 </v>
   <v>       0.16666667       0.00000000       0.00000000 </v>
   <v>       0.33333333       0.00000000       0.00000000 </v>
   <v>       0.50000000       0.00000000       0.00000000 </v>
   <v>      -0.33333333      -0.00000000      -0.00000000 </v>
   <v>      -0.16666667      -0.00000000      -0.00000000 </v>
   <v>       0.00000000       0.16666667      -0.00000000 </v>
   <v>       0.16666667       0.16666667       0.00000000 </v>
   <v>       0.33333333       0.16666667       0.00000000 </v>
   <v>       0.50000000       0.16666667       0.00000000 </v>
   <v>      -0.33333333       0.16666667      -0.00000000 </v>
   <v>      -0.16666667       0.16666667      -0.00000000 </v>
   <v>       0.00000000       0.33333333       0.00000000 </v>
   <v>       0.16666667       0.33333333       0.00000000 </v>
   <v>       0.33333333       0.33333333       0.00000000 </v>
   <v>       0.50000000       0.33333333       0.00000000 </v>
   <v>      -0.33333333       0.33333333      -0.00000000 </v>
   <v>      -0.16666667       0.33333333      -0.00000000 </v>
   <v>       0.00000000       0.50000000       0.00000000 </v>
   <v>       0.16666667       0.50000000       0.00000000 </v>
   <v>       0.33333333       0.50000000       0.00000000 </v>
   <v>       0.50000000       0.50000000       0.00000000 </v>
   <v>      -0.33333333       0.50000000      -0.00000000 </v>
   <v>      -0.16666667       0.50000000      -0.00000000 </v>
   <v>       0.00000000      -0.33333333       0.00000000 </v>
   <v>       0.16666667      -0.33333333       0.00000000 </v>
   <v>       0.33333333      -0.33333333       0.00000000 </v>
   <v>       0.50000000      -0.33333333       0.00000000 </v>
   <v>      -0.33333333      -0.33333333      -0.00000000 </v>
   <v>      -0.16666667      -0.33333333      -0.00000000 </v>
   <v>       0.00000000      -0.16666667       0.00000000 </v>
   <v>       0.16666667      -0.16666667       0.00000000 </v>
   <v>       0.33333333      -0.16666667       0.00000000 </v>
   <v>       0.50000000      -0.16666667       0.00000000 </v>
   <v>      -0.33333333      -0.16666667      -0.00000000 </v>
   <v>      -0.16666667      -0.16666667      -0.00000000 </v>
   <v>       0.00000000      -0.00000000       0.16666667 </v>
   <v>       0.16666667       0.00000000       0.16666667 </v>
   <v>       0.33333333       0.00000000       0.16666667 </v>
   <v>       0.50000000       0.00000000       0.16666667 </v>
   <v>      -0.33333333      -0.00000000       0.16666667 </v>
   <v>      -0.16666667      -0.00000000       0.16666667 </v>
   <v>       0.00000000       0.16666667       0.16666667 </v>
   <v>       0.16666667       0.16666667       0.16666667 </v>
   <v>       0.33333333       0.16666667       0.16666667 </v>
   <v>       0.50000000       0.16666667       0.16666667 </v>
   <v>      -0.33333333       0.16666667       0.16666667 </v>
   <v>      -0.16666667       0.16666667       0.16666667 </v>
   <v>       0.00000000       0.33333333       0.16666667 </v>
   <v>       0.16666667       0.33333333       0.16666667 </v>
   <v>       0.33333333       0.33333333       0.16666667 </v>
   <v>       0.50000000       0.33333333       0.16666667 </v>
   <v>      -0.33333333       0.33333333       0.16666667 </v>
   <v>      -0.16666667       0.33333333       0.16666667 </v>
   <v>       0.00000000       0.50000000       0.16666667 </v>
   <v>       0.16666667       0.50000000       0.16666667 </v>
   <v>       0.33333333       0.50000000       0.16666667 </v>
   <v>       0.50000000       0.50000000       0.16666667 </v>
   <v>      -0.33333333       0.50000000       0.16666667 </v>
   <v>      -0.16666667       0.50000000       0.16666667 </v>
   <v>      -0.00000000      -0.33333333       0.16666667 </v>
   <v>       0.16666667      -0.33333333       0.16666667 </v>
   <v>       0.33333333      -0.33333333       0.16666667 </v>
   <v>       0.50000000      -0.33333333       0.16666667 </v>
   <v>      -0.33333333      -0.33333333       0.16666667 </v>
   <v>      -0.16666667      -0.33333333       0.16666667 </v>
   <v>      -0.00000000      -0.16666667       0.16666667 </v>
   <v>       0.16666667      -0.16666667       0.16666667 </v>
   <v>       0.33333333      -0.16666667       0.16666667 </v>
   <v>       0.50000000      -0.16666667       0.16666667 </v>
   <v>      -0.33333333      -0.16666667       0.16666667 </v>
   <v>      -0.16666667      -0.16666667       0.16666667 </v>
   <v>      -0.00000000      -0.00000000       0.33333333 </v>
   <v>       0.16666667       0.00000000       0.33333333 </v>
   <v>       0.33333333       0.00000000       0.33333333 </v>
   <v>       0.50000000       0.00000000       0.33333333 </v>
   <v>      -0.33333333      -0.00000000       0.33333333 </v>
   <v>      -0.16666667      -0.00000000       0.33333333 </v>
   <v>      -0.00000000       0.16666667       0.33333333 </v>
   <v>       0.16666667       0.16666667       0.33333333 </v>
   <v>       0.33333333       0.16666667       0.33333333 </v>
   <v>       0.50000000       0.16666667       0.33333333 </v>
   <v>      -0.33333333       0.16666667       0.33333333 </v>
   <v>      -0.16666667       0.16666667       0.33333333 </v>
   <v>      -0.00000000       0.33333333       0.33333333 </v>
   <v>       0.16666667       0.33333333       0.33333333 </v>
   <v>       0.33333333       0.33333333       0.33333333 </v>
   <v>       0.50000000       0.33333333       0.33333333 </v>
   <v>      -0.33333333       0.33333333       0.33333333 </v>
   <v>      -0.16666667       0.33333333       0.33333333 </v>
   <v>       0.00000000       0.50000000       0.33333333 </v>
   <v>       0.16666667       0.50000000       0.33333333 </v>
   <v>       0.33333333       0.50000000       0.33333333 </v>
   <v>       0.50000000       0.50000000       0.33333333 </v>
   <v>      -0.33333333       0.50000000       0.33333333 </v>
   <v>      -0.16666667       0.50000000       0.33333333 </v>
   <v>      -0.00000000      -0.33333333       0.33333333 </v>
   <v>       0.16666667      -0.33333333       0.33333333 </v>
   <v>       0.33333333      -0.33333333       0.33333333 </v>
   <v>       0.50000000      -0.33333333       0.33333333 </v>
   <v>      -0.33333333      -0.33333333       0.33333333 </v>
   <v>      -0.16666667      -0.33333333       0.33333333 </v>
   <v>      -0.00000000      -0.16666667       0.33333333 </v>
   <v>       0.16666667      -0.16666667       0.33333333 </v>
   <v>       0.33333333      -0.16666667       0.33333333 </v>
   <v>       0.50000000      -0.16666667       0.33333333 </v>
   <v>      -0.33333333      -0.16666667       0.33333333 </v>
   <v>      -0.16666667      -0.16666667       0.33333333 </v>
   <v>      -0.00000000      -0.00000000       0.50000000 </v>
   <v>       0.16666667       0.00000000       0.50000000 </v>
   <v>       0.33333333       0.00000000       0.50000000 </v>
   <v>       0.50000000       0.00000000       0.50000000 </v>
   <v>      -0.33333333      -0.00000000       0.50000000 </v>
   <v>      -0.16666667      -0.00000000       0.50000000 </v>
   <v>      -0.00000000       0.16666667       0.50000000 </v>
   <v>       0.16666667       0.16666667       0.50000000 </v>
   <v>       0.33333333       0.16666667       0.50000000 </v>
   <v>       0.50000000       0.16666667       0.50000000 </v>
   <v>      -0.33333333       0.16666667       0.50000000 </v>
   <v>      -0.16666667       0.16666667       0.50000000 </v>
   <v>      -0.00000000       0.33333333       0.50000000 </v>
   <v>       0.16666667       0.33333333       0.50000000 </v>
   <v>       0.33333333       0.33333333       0.50000000 </v>
   <v>       0.50000000       0.33333333       0.50000000 </v>
   <v>      -0.33333333       0.33333333       0.50000000 </v>
   <v>      -0.16666667       0.33333333       0.50000000 </v>
   <v>      -0.00000000       0.50000000       0.50000000 </v>
   <v>       0.16666667       0.50000000       0.50000000 </v>
   <v>       0.33333333       0.50000000       0.50000000 </v>
   <v>       0.50000000       0.50000000       0.50000000 </v>
   <v>      -0.33333333       0.50000000       0.50000000 </v>
   <v>      -0.16666667       0.50000000       0.50000000 </v>
   <v>       0.00000000      -0.33333333       0.50000000 </v>
   <v>       0.16666667      -0.33333333       0.50000000 </v>
   <v>       0.33333333      -0.33333333       0.50000000 </v>
   <v>       0.50000000      -0.33333333       0.50000000 </v>
   <v>      -0.33333333      -0.33333333       0.50000000 </v>
   <v>      -0.16666667      -0.33333333       0.50000000 </v>
   <v>       0.00000000      -0.16666667       0.50000000 </v>
   <v>       0.16666667      -0.16666667       0.50000000 </v>
   <v>       0.33333333      -0.16666667       0.50000000 </v>
   <v>       0.50000000      -0.16666667       0.50000000 </v>
   <v>      -0.33333333      -0.16666667       0.50000000 </v>
   <v>      -0.16666667      -0.16666667       0.50000000 </v>
   <v>       0.00000000       0.00000000      -0.33333333 </v>
   <v>       0.16666667       0.00000000      -0.33333333 </v>
   <v>       0.33333333       0.00000000      -0.33333333 </v>
   <v>       0.50000000       0.00000000      -0.33333333 </v>
   <v>      -0.33333333      -0.00000000      -0.33333333 </v>
   <v>      -0.16666667      -0.00000000      -0.33333333 </v>
   <v>       0.00000000       0.16666667      -0.33333333 </v>
   <v>       0.16666667       0.16666667      -0.33333333 </v>
   <v>       0.33333333       0.16666667      -0.33333333 </v>
   <v>       0.50000000       0.16666667      -0.33333333 </v>
   <v>      -0.33333333       0.16666667      -0.33333333 </v>
   <v>      -0.16666667       0.16666667      -0.33333333 </v>
   <v>       0.00000000       0.33333333      -0.33333333 </v>
   <v>       0.16666667       0.33333333      -0.33333333 </v>
   <v>       0.33333333       0.33333333      -0.33333333 </v>
   <v>       0.50000000       0.33333333      -0.33333333 </v>
   <v>      -0.33333333       0.33333333      -0.33333333 </v>
   <v>      -0.16666667       0.33333333      -0.33333333 </v>
   <v>       0.00000000       0.50000000      -0.33333333 </v>
   <v>       0.16666667       0.50000000      -0.33333333 </v>
   <v>       0.33333333       0.50000000      -0.33333333 </v>
   <v>       0.50000000       0.50000000      -0.33333333 </v>
   <v>      -0.33333333       0.50000000      -0.33333333 </v>
   <v>      -0.16666667       0.50000000      -0.33333333 </v>
   <v>       0.00000000      -0.33333333      -0.33333333 </v>
   <v>       0.16666667      -0.33333333      -0.33333333 </v>
   <v>       0.33333333      -0.33333333      -0.33333333 </v>
   <v>       0.50000000      -0.33333333      -0.33333333 </v>
   <v>      -0.33333333      -0.33333333      -0.33333333 </v>
   <v>      -0.16666667      -0.33333333      -0.33333333 </v>
   <v>       0.00000000      -0.16666667      -0.33333333 </v>
   <v>       0.16666667      -0.16666667      -0.33333333 </v>
   <v>       0.33333333      -0.16666667      -0.33333333 </v>
   <v>       0.50000000      -0.16666667      -0.33333333 </v>
   <v>      -0.33333333      -0.16666667      -0.33333333 </v>
   <v>      -0.16666667      -0.16666667      -0.33333333 </v>
   <v>       0.00000000       0.00000000      -0.16666667 </v>
   <v>       0.16666667       0.00000000      -0.16666667 </v>
   <v>       0.33333333       0.00000000      -0.16666667 </v>
   <v>       0.50000000       0.00000000      -0.16666667 </v>
   <v>      -0.33333333      -0.00000000      -0.16666667 </v>
   <v>      -0.16666667      -0.00000000      -0.16666667 </v>
   <v>       0.00000000       0.16666667      -0.16666667 </v>
   <v>       0.16666667       0.16666667      -0.16666667 </v>
   <v>       0.33333333       0.16666667      -0.16666667 </v>
   <v>       0.50000000       0.16666667      -0.16666667 </v>
   <v>      -0.33333333       0.16666667      -0.16666667 </v>
   <v>      -0.16666667       0.16666667      -0.16666667 </v>
   <v>       0.00000000       0.33333333      -0.16666667 </v>
   <v>       0.16666667       0.33333333      -0.16666667 </v>
   <v>       0.33333333       0.33333333      -0.16666667 </v>
   <v>       0.50000000       0.33333333      -0.16666667 </v>
   <v>      -0.33333333       0.33333333      -0.16666667 </v>
   <v>      -0.16666667       0.33333333      -0.16666667 </v>
   <v>      -0.00000000       0.50000000      -0.16666667 </v>
   <v>       0.16666667       0.50000000      -0.16666667 </v>
   <v>       0.33333333       0.50000000      -0.16666667 </v>
   <v>       0.50000000       0.50000000      -0.16666667 </v>
   <v>      -0.33333333       0.50000000      -0.16666667 </v>
   <v>      -0.16666667       0.50000000      -0.16666667 </v>
   <v>      -0.00000000      -0.33333333      -0.16666667 </v>
   <v>       0.16666667      -0.33333333      -0.16666667 </v>
   <v>       0.33333333      -0.33333333      -0.16666667 </v>
   <v>       0.50000000      -0.33333333      -0.16666667 </v>
   <v>      -0.33333333      -0.33333333      -0.16666667 </v>
   <v>      -0.16666667      -0.33333333      -0.16666667 </v>
   <v>      -0.00000000      -0.16666667      -0.16666667 </v>
   <v>       0.16666667      -0.16666667      -0.16666667 </v>
   <v>       0.33333333      -0.16666667      -0.16666667 </v>
   <v>       0.50000000      -0.16666667      -0.16666667 </v>
   <v>      -0.33333333      -0.16666667      -0.16666667 </v>
   <v>      -0.16666667      -0.16666667      -0.16666667 </v>
  </varray>
  <varray name="weights" >
   <v>       0.00462963 </v>
   <v>       0.00462963 </v>
   <v>       0.00462963 </v>
   <v>       0.00462963 </v>
   <v>       0.00462963 </v>
   <v>       0.00462963 </v>
   <v>       0.00462963 </v>
   <v>       0.00462963 </v>
   <v>       0.00462963 </v>
   <v>       0.00462963 </v>
   <v>       0.00462963 </v>
   <v>       0.00462963 </v>
   <v>       0.00462963 </v>
   <v>       0.00462963 </v>
   <v>       0.00462963 </v>
   <v>       0.00462963 </v>
   <v>       0.00462963 </v>
   <v>       0.00462963 </v>
   <v>       0.00462963 </v>
   <v>       0.00462963 </v>
   <v>       0.00462963 </v>
   <v>       0.00462963 </v>
   <v>       0.00462963 </v>
   <v>       0.00462963 </v>
   <v>       0.00462963 </v>
   <v>       0.00462963 </v>
   <v>       0.00462963 </v>
   <v>       0.00462963 </v>
   <v>       0.00462963 </v>
   <v>       0.00462963 </v>
   <v>       0.00462963 </v>
   <v>       0.00462963 </v>
   <v>       0.00462963 </v>
   <v>       0.00462963 </v>
   <v>       0.00462963 </v>
   <v>       0.00462963 </v>
   <v>       0.00462963 </v>
   <v>       0.00462963 </v>
   <v>       0.00462963 </v>
   <v>       0.00462963 </v>
   <v>       0.00462963 </v>
   <v>       0.00462963 </v>
   <v>       0.00462963 </v>
   <v>       0.00462963 </v>
   <v>       0.00462963 </v>
   <v>       0.00462963 </v>
   <v>       0.00462963 </v>
   <v>       0.00462963 </v>
   <v>       0.00462963 </v>
   <v>       0.00462963 </v>
   <v>       0.00462963 </v>
   <v>       0.00462963 </v>
   <v>       0.00462963 </v>
   <v>       0.00462963 </v>
   <v>       0.00462963 </v>
   <v>       0.00462963 </v>
   <v>       0.00462963 </v>
   <v>       0.00462963 </v>
   <v>       0.00462963 </v>
   <v>       0.00462963 </v>
   <v>       0.00462963 </v>
   <v>       0.00462963 </v>
   <v>       0.00462963 </v>
   <v>       0.00462963 </v>
   <v>       0.00462963 </v>
   <v>       0.00462963 </v>
   <v>       0.00462963 </v>
   <v>       0.00462963 </v>
   <v>       0.00462963 </v>
   <v>       0.00462963 </v>
   <v>       0.00462963 </v>
   <v>       0.00462963 </v>
   <v>       0.00462963 </v>
   <v>       0.00462963 </v>
   <v>       0.00462963 </v>
   <v>       0.00462963 </v>
   <v>       0.00462963 </v>
   <v>       0.00462963 </v>
   <v>       0.00462963 </v>
   <v>       0.00462963 </v>
   <v>       0.00462963 </v>
   <v>       0.00462963 </v>
   <v>       0.00462963 </v>
   <v>       0.00462963 </v>
   <v>       0.00462963 </v>
   <v>       0.00462963 </v>
   <v>       0.00462963 </v>
   <v>       0.00462963 </v>
   <v>       0.00462963 </v>
   <v>       0.00462963 </v>
   <v>       0.00462963 </v>
   <v>       0.00462963 </v>
   <v>       0.00462963 </v>
   <v>       0.00462963 </v>
   <v>       0.00462963 </v>
   <v>       0.00462963 </v>
   <v>       0.00462963 </v>
   <v>       0.00462963 </v>
   <v>       0.00462963 </v>
   <v>       0.00462963 </v>
   <v>       0.00462963 </v>
   <v>       0.00462963 </v>
   <v>       0.00462963 </v>
   <v>       0.00462963 </v>
   <v>       0.00462963 </v>
   <v>       0.00462963 </v>
   <v>       0.00462963 </v>
   <v>       0.00462963 </v>
   <v>       0.00462963 </v>
   <v>       0.00462963 </v>
   <v>       0.00462963 </v>
   <v>       0.00462963 </v>
   <v>       0.00462963 </v>
   <v>       0.00462963 </v>
   <v>       0.00462963 </v>
   <v>       0.00462963 </v>
   <v>       0.00462963 </v>
   <v>       0.00462963 </v>
   <v>       0.00462963 </v>
   <v>       0.00462963 </v>
   <v>       0.00462963 </v>
   <v>       0.00462963 </v>
   <v>       0.00462963 </v>
   <v>       0.00462963 </v>
   <v>       0.00462963 </v>
   <v>       0.00462963 </v>
   <v>       0.00462963 </v>
   <v>       0.00462963 </v>
   <v>       0.00462963 </v>
   <v>       0.00462963 </v>
   <v>       0.00462963 </v>
   <v>       0.00462963 </v>
   <v>       0.00462963 </v>
   <v>       0.00462963 </v>
   <v>       0.00462963 </v>
   <v>       0.00462963 </v>
   <v>       0.00462963 </v>
   <v>       0.00462963 </v>
   <v>       0.00462963 </v>
   <v>       0.00462963 </v>
   <v>       0.00462963 </v>
   <v>       0.00462963 </v>
   <v>       0.00462963 </v>
   <v>       0.00462963 </v>
   <v>       0.00462963 </v>
   <v>       0.00462963 </v>
   <v>       0.00462963 </v>
   <v>       0.00462963 </v>
   <v>       0.00462963 </v>
   <v>       0.00462963 </v>
   <v>       0.00462963 </v>
   <v>       0.00462963 </v>
   <v>       0.00462963 </v>
   <v>       0.00462963 </v>
   <v>       0.00462963 </v>
   <v>       0.00462963 </v>
   <v>       0.00462963 </v>
   <v>       0.00462963 </v>
   <v>       0.00462963 </v>
   <v>       0.00462963 </v>
   <v>       0.00462963 </v>
   <v>       0.00462963 </v>
   <v>       0.00462963 </v>
   <v>       0.00462963 </v>
   <v>       0.00462963 </v>
   <v>       0.00462963 </v>
   <v>       0.00462963 </v>
   <v>       0.00462963 </v>
   <v>       0.00462963 </v>
   <v>       0.00462963 </v>
   <v>       0.00462963 </v>
   <v>       0.00462963 </v>
   <v>       0.00462963 </v>
   <v>       0.00462963 </v>
   <v>       0.00462963 </v>
   <v>       0.00462963 </v>
   <v>       0.00462963 </v>
   <v>       0.00462963 </v>
   <v>       0.00462963 </v>
   <v>       0.00462963 </v>
   <v>       0.00462963 </v>
   <v>       0.00462963 </v>
   <v>       0.00462963 </v>
   <v>       0.00462963 </v>
   <v>       0.00462963 </v>
   <v>       0.00462963 </v>
   <v>       0.00462963 </v>
   <v>       0.00462963 </v>
   <v>       0.00462963 </v>
   <v>       0.00462963 </v>
   <v>       0.00462963 </v>
   <v>       0.00462963 </v>
   <v>       0.00462963 </v>
   <v>       0.00462963 </v>
   <v>       0.00462963 </v>
   <v>       0.00462963 </v>
   <v>       0.00462963 </v>
   <v>       0.00462963 </v>
   <v>       0.00462963 </v>
   <v>       0.00462963 </v>
   <v>       0.00462963 </v>
   <v>       0.00462963 </v>
   <v>       0.00462963 </v>
   <v>       0.00462963 </v>
   <v>       0.00462963 </v>
   <v>       0.00462963 </v>
   <v>       0.00462963 </v>
   <v>       0.00462963 </v>
   <v>       0.00462963 </v>
   <v>       0.00462963 </v>
   <v>       0.00462963 </v>
   <v>       0.00462963 </v>
   <v>       0.00462963 </v>
   <v>       0.00462963 </v>
   <v>       0.00462963 </v>
   <v>       0.00462963 </v>
  </varray>
 </kpoints>
 <parameters>
  <separator name="general" >
   <i type="string" name="SYSTEM">Og_FCC</i>
   <i type="logical" name="LCOMPAT"> F  </i>
  </separator>
  <separator name="electronic" >
   <i type="string" name="PREC">accura</i>
   <i name="ENMAX">    300.00000000</i>
   <i name="ENAUG">    715.60700000</i>
   <i name="EDIFF">      0.00000001</i>
   <i type="int" name="IALGO">    90</i>
   <i type="int" name="IWAVPR">    10</i>
   <i type="int" name="NBANDS">   384</i>
   <i name="NELECT">     18.00000000</i>
   <i type="int" name="TURBO">     0</i>
   <i type="int" name="IRESTART">     0</i>
   <i type="int" name="NREBOOT">     0</i>
   <i type="int" name="NMIN">     0</i>
   <i name="EREF">      0.00000000</i>
   <separator name="electronic smearing" >
    <i type="int" name="ISMEAR">     0</i>
    <i name="SIGMA">      0.05000000</i>
    <i name="KSPACING">      0.50000000</i>
    <i type="logical" name="KGAMMA"> T  </i>
   </separator>
   <separator name="electronic projectors" >
    <i type="logical" name="LREAL"> F  </i>
    <v name="ROPT">      0.00000000</v>
    <i type="int" name="LMAXPAW">  -100</i>
    <i type="int" name="LMAXMIX">     2</i>
    <i type="logical" name="NLSPLINE"> F  </i>
   </separator>
   <separator name="electronic startup" >
    <i type="int" name="ISTART">     1</i>
    <i type="int" name="ICHARG">     0</i>
    <i type="int" name="INIWAV">     1</i>
   </separator>
   <separator name="electronic spin" >
    <i type="int" name="ISPIN">     1</i>
    <i type="logical" name="LNONCOLLINEAR"> T  </i>
    <v name="MAGMOM">      1.00000000      1.00000000      1.00000000</v>
    <i name="NUPDOWN">     -1.00000000</i>
    <i type="logical" name="LSORBIT"> T  </i>
    <v name="SAXIS">      0.00000000      0.00000000      1.00000000</v>
    <i type="logical" name="LSPIRAL"> F  </i>
    <v name="QSPIRAL">      0.00000000      0.00000000      0.00000000</v>
    <i type="logical" name="LZEROZ"> F  </i>
   </separator>
   <separator name="electronic exchange-correlation" >
    <i type="logical" name="LASPH"> F  </i>
    <i type="logical" name="LMETAGGA"> F  </i>
   </separator>
   <separator name="electronic convergence" >
    <i type="int" name="NELM">    50</i>
    <i type="int" name="NELMDL">    -5</i>
    <i type="int" name="NELMIN">     2</i>
    <i name="ENINI">    300.00000000</i>
    <separator name="electronic convergence detail" >
     <i type="logical" name="LDIAG"> T  </i>
     <i type="logical" name="LSUBROT"> F  </i>
     <i name="WEIMIN">      0.00000000</i>
     <i name="EBREAK">      0.00000000</i>
     <i name="DEPER">      0.30000000</i>
     <i type="int" name="NRMM">     4</i>
     <i name="TIME">      0.40000000</i>
    </separator>
   </separator>
   <separator name="electronic mixer" >
    <i name="AMIX">      0.40000000</i>
    <i name="BMIX">      1.00000000</i>
    <i name="AMIN">      0.10000000</i>
    <i name="AMIX_MAG">      1.60000000</i>
    <i name="BMIX_MAG">      1.00000000</i>
    <separator name="electronic mixer details" >
     <i type="int" name="IMIX">     4</i>
     <i type="logical" name="MIXFIRST"> F  </i>
     <i type="int" name="MAXMIX">    50</i>
     <i name="WC">    100.00000000</i>
     <i type="int" name="INIMIX">     1</i>
     <i type="int" name="MIXPRE">     1</i>
     <i type="int" name="MREMOVE">     5</i>
    </separator>
   </separator>
   <separator name="electronic dipolcorrection" >
    <i type="logical" name="LDIPOL"> F  </i>
    <i type="logical" name="LMONO"> F  </i>
    <i type="int" name="IDIPOL">     0</i>
    <i name="EPSILON">      1.00000000</i>
    <v name="DIPOL">   -100.00000000   -100.00000000   -100.00000000</v>
    <i name="EFIELD">      0.00000000</i>
   </separator>
  </separator>
  <separator name="grids" >
   <i type="int" name="NGX">    28</i>
   <i type="int" name="NGY">    28</i>
   <i type="int" name="NGZ">    28</i>
   <i type="int" name="NGXF">    56</i>
   <i type="int" name="NGYF">    56</i>
   <i type="int" name="NGZF">    56</i>
   <i type="logical" name="ADDGRID"> T  </i>
  </separator>
  <separator name="ionic" >
   <i type="int" name="NSW">     1</i>
   <i type="int" name="IBRION">    -1</i>
   <i type="int" name="MDALGO">     0</i>
   <i type="int" name="ISIF">     3</i>
   <i name="PSTRESS">      0.00000000</i>
   <i name="EDIFFG">      0.00001000</i>
   <i type="int" name="NFREE">     5</i>
   <i name="POTIM">      0.10000000</i>
   <i name="SMASS">     -3.00000000</i>
   <i name="SCALEE">      1.00000000</i>
  </separator>
  <separator name="ionic md" >
   <i name="TEBEG">      0.00010000</i>
   <i name="TEEND">      0.00010000</i>
   <i type="int" name="NBLOCK">     1</i>
   <i type="int" name="KBLOCK">     1</i>
   <i type="int" name="NPACO">   256</i>
   <i name="APACO">     16.00000000</i>
  </separator>
  <separator name="symmetry" >
   <i type="int" name="ISYM">     0</i>
   <i name="SYMPREC">      0.00000010</i>
  </separator>
  <separator name="dos" >
   <i type="int" name="LORBIT">     0</i>
   <v name="RWIGS">     -1.00000000</v>
   <i type="int" name="NEDOS">   301</i>
   <i name="EMIN">     10.00000000</i>
   <i name="EMAX">    -10.00000000</i>
   <i name="EFERMI">      0.00000000</i>
  </separator>
  <separator name="writing" >
   <i type="int" name="NWRITE">     2</i>
   <i type="logical" name="LWAVE"> T  </i>
   <i type="logical" name="LDOWNSAMPLE"> F  </i>
   <i type="logical" name="LCHARG"> F  </i>
   <i type="logical" name="LPARD"> F  </i>
   <i type="logical" name="LVTOT"> F  </i>
   <i type="logical" name="LVHAR"> F  </i>
   <i type="logical" name="LELF"> F  </i>
   <i type="logical" name="LOPTICS"> T  </i>
   <v name="STM">      0.00000000      0.00000000      0.00000000      0.00000000      0.00000000      0.00000000      0.00000000</v>
  </separator>
  <separator name="performance" >
   <i type="int" name="NPAR">     2</i>
   <i type="int" name="NSIM">     4</i>
   <i type="int" name="NBLK">    -1</i>
   <i type="logical" name="LPLANE"> T  </i>
   <i type="logical" name="LSCALAPACK"> T  </i>
   <i type="logical" name="LSCAAWARE"> T  </i>
   <i type="logical" name="LSCALU"> F  </i>
   <i type="logical" name="LASYNC"> F  </i>
   <i type="logical" name="LORBITALREAL"> F  </i>
  </separator>
  <separator name="miscellaneous" >
   <i type="int" name="IDIOT">     3</i>
   <i type="int" name="ISPECIAL">     0</i>
   <i type="logical" name="LMUSIC"> F  </i>
   <v name="POMASS">    220.17000000</v>
   <v name="DARWINR">      0.00000000</v>
   <v name="DARWINV">      1.00000000</v>
   <i type="logical" name="LCORR"> T  </i>
  </separator>
  <i type="logical" name="GGA_COMPAT"> F  </i>
  <i type="logical" name="LBERRY"> F  </i>
  <i type="int" name="ICORELEVEL">     0</i>
  <i type="logical" name="LDAU"> F  </i>
  <i type="int" name="I_CONSTRAINED_M">     0</i>
  <separator name="electronic exchange-correlation" >
   <i type="string" name="GGA">PE</i>
   <i type="int" name="VOSKOWN">     0</i>
   <i type="logical" name="LHFCALC"> F  </i>
   <i type="string" name="PRECFOCK"></i>
   <i type="logical" name="LSYMGRAD"> F  </i>
   <i type="logical" name="LHFONE"> F  </i>
   <i type="logical" name="LRHFCALC"> F  </i>
   <i type="logical" name="LTHOMAS"> F  </i>
   <i type="logical" name="LMODELHF"> F  </i>
   <i name="ENCUT4O">     -1.00000000</i>
   <i type="int" name="EXXOEP">     0</i>
   <i type="int" name="FOURORBIT">     0</i>
   <i name="AEXX">      0.00000000</i>
   <i name="HFALPHA">      0.00000000</i>
   <i name="MCALPHA">      0.00000000</i>
   <i name="ALDAX">      1.00000000</i>
   <i name="AGGAX">      1.00000000</i>
   <i name="ALDAC">      1.00000000</i>
   <i name="AGGAC">      1.00000000</i>
   <i type="int" name="NKREDX">     1</i>
   <i type="int" name="NKREDY">     1</i>
   <i type="int" name="NKREDZ">     1</i>
   <i type="logical" name="SHIFTRED"> F  </i>
   <i type="logical" name="ODDONLY"> F  </i>
   <i type="logical" name="EVENONLY"> F  </i>
   <i type="int" name="LMAXFOCK">     0</i>
   <i type="int" name="NMAXFOCKAE">     0</i>
   <i type="logical" name="LFOCKAEDFT"> F  </i>
   <i name="HFSCREEN">      0.00000000</i>
   <i name="HFSCREENC">      0.00000000</i>
   <i type="int" name="NBANDSGWLOW">     0</i>
  </separator>
  <separator name="vdW DFT" >
   <i type="logical" name="LUSE_VDW"> F  </i>
   <i name="Zab_VDW">     -0.84910000</i>
   <i name="PARAM1">      0.12340000</i>
   <i name="PARAM2">      1.00000000</i>
   <i name="PARAM3">      0.00000000</i>
  </separator>
  <separator name="model GW" >
   <i type="int" name="MODEL_GW">     0</i>
   <i name="MODEL_EPS0">     36.50086281</i>
   <i name="MODEL_ALPHA">      1.00000000</i>
  </separator>
  <separator name="linear response parameters" >
   <i type="logical" name="LEPSILON"> F  </i>
   <i type="logical" name="LRPA"> F  </i>
   <i type="logical" name="LNABLA"> F  </i>
   <i type="logical" name="LVEL"> F  </i>
   <i type="int" name="KINTER">     0</i>
   <i name="CSHIFT">      0.10000000</i>
   <i name="OMEGAMAX">     -1.00000000</i>
   <i name="DEG_THRESHOLD">      0.00200000</i>
   <i name="RTIME">     -0.10000000</i>
   <i name="WPLASMAI">      0.00000000</i>
   <v name="DFIELD">      0.00000000      0.00000000      0.00000000</v>
   <v name="WPLASMA">      0.00000000      0.00000000      0.00000000      0.00000000      0.00000000      0.00000000      0.00000000      0.00000000      0.00000000</v>
  </separator>
  <separator name="orbital magnetization" >
   <i type="logical" name="NUCIND"> F  </i>
   <v name="MAGPOS">      0.00000000      0.00000000      0.00000000</v>
   <i type="logical" name="LNICSALL"> T  </i>
   <i type="logical" name="ORBITALMAG"> F  </i>
   <i type="logical" name="LMAGBLOCH"> F  </i>
   <i type="logical" name="LCHIMAG"> F  </i>
   <i type="logical" name="LGAUGE"> T  </i>
   <i type="int" name="MAGATOM">     0</i>
   <v name="MAGDIPOL">      0.00000000      0.00000000      0.00000000</v>
   <v name="AVECCONST">      0.00000000      0.00000000      0.00000000</v>
  </separator>
  <separator name="response functions" >
   <i type="logical" name="LADDER"> F  </i>
   <i type="logical" name="LRPAFORCE"> F  </i>
   <i type="logical" name="LFXC"> F  </i>
   <i type="logical" name="LHARTREE"> T  </i>
   <i type="int" name="IBSE">     0</i>
   <v type="int" name="KPOINT">    -1     0     0     0</v>
   <i type="logical" name="LTCTE"> F  </i>
   <i type="logical" name="LTETE"> F  </i>
   <i type="logical" name="LTRIPLET"> F  </i>
   <i type="logical" name="LFXCEPS"> F  </i>
   <i type="logical" name="LFXHEG"> F  </i>
   <i type="int" name="NATURALO">     2</i>
   <i type="logical" name="L2ORDER"> F  </i>
   <i type="logical" name="LMP2LT"> F  </i>
   <i type="logical" name="LUSEW"> F  </i>
   <i name="ENCUTGW">     -2.00000000</i>
   <i name="ENCUTGWSOFT">     -2.00000000</i>
   <i name="ENCUTLF">     -1.00000000</i>
   <i type="int" name="LMAXMP2">    -1</i>
   <i name="SCISSOR">      0.00000000</i>
   <i type="int" name="NOMEGA">     0</i>
   <i type="int" name="NOMEGAR">     0</i>
   <i type="int" name="NBANDSGW">    -1</i>
   <i type="int" name="NBANDSO">    -1</i>
   <i type="int" name="NBANDSV">    -1</i>
   <i type="int" name="NELM">    50</i>
   <i type="int" name="NELMHF">     1</i>
   <i type="int" name="DIM">     3</i>
   <i type="int" name="ANTIRES">     0</i>
   <i name="OMEGAMAX">    -30.00000000</i>
   <i name="OMEGAMIN">    -30.00000000</i>
   <i name="OMEGATL">   -200.00000000</i>
   <i type="int" name="OMEGAGRID">   140</i>
   <i name="CSHIFT">     -0.10000000</i>
   <i type="logical" name="SELFENERGY"> F  </i>
   <i type="logical" name="LSPECTRAL"> F  </i>
   <i type="logical" name="LSPECTRALGW"> F  </i>
   <i type="logical" name="LSINGLES"> F  </i>
   <i type="logical" name="LFERMIGW"> F  </i>
   <i type="logical" name="ODDONLYGW"> F  </i>
   <i type="logical" name="EVENONLYGW"> F  </i>
   <i type="int" name="NKREDLFX">     1</i>
   <i type="int" name="NKREDLFY">     1</i>
   <i type="int" name="NKREDLFZ">     1</i>
   <i type="int" name="MAXMEM">  2800</i>
   <i type="int" name="TELESCOPE">     0</i>
   <i type="int" name="TAUPAR">     1</i>
   <i type="int" name="OMEGAPAR">    -1</i>
   <i name="LAMBDA">      1.00000000</i>
  </separator>
  <separator name="External order field" >
   <i name="OFIELD_KAPPA">      0.00000000</i>
   <v name="OFIELD_K">      0.00000000      0.00000000      0.00000000</v>
   <i name="OFIELD_Q6_NEAR">      0.00000000</i>
   <i name="OFIELD_Q6_FAR">      0.00000000</i>
   <i name="OFIELD_A">      0.00000000</i>
  </separator>
 </parameters>
 <atominfo>
  <atoms>       1 </atoms>
  <types>       1 </types>
  <array name="atoms" >
   <dimension dim="1">ion</dimension>
   <field type="string">element</field>
   <field type="int">atomtype</field>
   <set>
    <rc><c>Rn</c><c>   1</c></rc>
   </set>
  </array>
  <array name="atomtypes" >
   <dimension dim="1">type</dimension>
   <field type="int">atomspertype</field>
   <field type="string">element</field>
   <field>mass</field>
   <field>valence</field>
   <field type="string">pseudopotential</field>
   <set>
    <rc><c>   1</c><c>Rn</c><c>    220.17000000</c><c>     18.00000000</c><c>  PAW_PBE Rn_d_GW 14Apr2014             </c></rc>
   </set>
  </array>
 </atominfo>
 <structure name="initialpos" >
  <crystal>
   <varray name="basis" >
    <v>       4.41457561       0.00000000       0.00000000 </v>
    <v>       2.20728780       3.82313462      -0.00000000 </v>
    <v>       2.20728780       1.27437821       3.60448589 </v>
   </varray>
   <i name="volume">     60.83477135 </i>
   <varray name="rec_basis" >
    <v>       0.22652234      -0.13078273      -0.09247736 </v>
    <v>       0.00000000       0.26156547      -0.09247736 </v>
    <v>      -0.00000000       0.00000000       0.27743208 </v>
   </varray>
  </crystal>
  <varray name="positions" >
   <v>       0.00000000       0.00000000       0.00000000 </v>
  </varray>
  <varray name="velocities" >
   <v>       0.00000000       0.00000000       0.00000000 </v>
  </varray>
 </structure>
 <calculation>
  <scstep>
   <time name="diag">   77.47   77.46</time>
   <time name="total">   77.63   77.62</time>
   <energy>
    <i name="alphaZ">     69.69972675 </i>
    <i name="ewald">  -1713.14217088 </i>
    <i name="hartreedc">   -991.59989284 </i>
    <i name="XCdc">     36.87932197 </i>
    <i name="pawpsdc">   2509.69195583 </i>
    <i name="pawaedc">  -2480.60917660 </i>
    <i name="eentropy">     -0.00000000 </i>
    <i name="bandstr">   -463.31806002 </i>
    <i name="atom">   3030.62410580 </i>
    <i name="e_fr_energy">     -1.77418999 </i>
    <i name="e_wo_entrp">     -1.77418999 </i>
    <i name="e_0_energy">     -1.77418999 </i>
   </energy>
  </scstep>
  <scstep>
   <time name="diag">   77.49   77.48</time>
   <time name="total">   77.50   77.49</time>
   <energy>
    <i name="e_fr_energy">     -1.77418999 </i>
    <i name="e_wo_entrp">     -1.77418999 </i>
    <i name="e_0_energy">     -1.77418999 </i>
   </energy>
  </scstep>
  <scstep>
   <time name="diag">   77.42   77.39</time>
   <time name="total">   77.43   77.39</time>
   <energy>
    <i name="e_fr_energy">     -1.77418999 </i>
    <i name="e_wo_entrp">     -1.77418999 </i>
    <i name="e_0_energy">     -1.77418999 </i>
   </energy>
  </scstep>
  <scstep>
   <time name="diag">   77.51   77.48</time>
   <time name="total">   77.52   77.48</time>
   <energy>
    <i name="e_fr_energy">     -1.77418999 </i>
    <i name="e_wo_entrp">     -1.77418999 </i>
    <i name="e_0_energy">     -1.77418999 </i>
   </energy>
  </scstep>
  <scstep>
   <time name="diag">   77.45   77.42</time>
   <time name="total">   77.71   77.68</time>
   <energy>
    <i name="e_fr_energy">     -1.77418999 </i>
    <i name="e_wo_entrp">     -1.77418999 </i>
    <i name="e_0_energy">     -1.77418999 </i>
   </energy>
  </scstep>
  <scstep>
   <time name="diag">   77.43   77.41</time>
   <time name="total">   77.59   77.58</time>
   <energy>
    <i name="alphaZ">     69.69972675 </i>
    <i name="ewald">  -1713.14217088 </i>
    <i name="hartreedc">   -991.59987257 </i>
    <i name="XCdc">     36.87932130 </i>
    <i name="pawpsdc">   2509.69184204 </i>
    <i name="pawaedc">  -2480.60905770 </i>
    <i name="eentropy">     -0.00000000 </i>
    <i name="bandstr">   -463.31808473 </i>
    <i name="atom">   3030.62410580 </i>
    <i name="e_fr_energy">     -1.77418999 </i>
    <i name="e_wo_entrp">     -1.77418999 </i>
    <i name="e_0_energy">     -1.77418999 </i>
   </energy>
  </scstep>
  <structure>
   <crystal>
    <varray name="basis" >
     <v>       4.41457561       0.00000000       0.00000000 </v>
     <v>       2.20728780       3.82313462      -0.00000000 </v>
     <v>       2.20728780       1.27437821       3.60448589 </v>
    </varray>
    <i name="volume">     60.83477135 </i>
    <varray name="rec_basis" >
     <v>       0.22652234      -0.13078273      -0.09247736 </v>
     <v>       0.00000000       0.26156547      -0.09247736 </v>
     <v>      -0.00000000       0.00000000       0.27743208 </v>
    </varray>
   </crystal>
   <varray name="positions" >
    <v>       0.00000000       0.00000000       0.00000000 </v>
   </varray>
  </structure>
  <varray name="forces" >
   <v>       0.00000000       0.00000000      -0.00000001 </v>
  </varray>
  <varray name="stress" >
   <v>      -0.34922919       0.00022805       0.00017407 </v>
   <v>       0.00022855      -0.34947034       0.00008358 </v>
   <v>       0.00017411       0.00008434      -0.34974511 </v>
  </varray>
  <energy>
   <i name="e_fr_energy">     -1.99818031 </i>
   <i name="e_wo_entrp">     -1.99818031 </i>
   <i name="e_0_energy">     -0.00000000 </i>
  </energy>
  <time name="totalsc">  475.61  477.05</time>
  <eigenvalues>
   <array>
    <dimension dim="1">band</dimension>
    <dimension dim="2">kpoint</dimension>
    <dimension dim="3">spin</dimension>
    <field>eigene</field>
    <field>occ</field>
    <set>
     <set comment="spin 1">
      <set comment="kpoint 1">
       <r>  -43.7664    1.0000 </r>
       <r>  -43.7664    1.0000 </r>
       <r>  -43.7664    1.0000 </r>
       <r>  -43.7664    1.0000 </r>
       <r>  -39.3631    1.0000 </r>
       <r>  -39.3631    1.0000 </r>
       <r>  -39.3623    1.0000 </r>
       <r>  -39.3623    1.0000 </r>
       <r>  -39.3623    1.0000 </r>
       <r>  -39.3623    1.0000 </r>
       <r>  -17.0618    1.0000 </r>
       <r>  -17.0618    1.0000 </r>
       <r>   -4.6608    1.0000 </r>
       <r>   -4.6608    1.0000 </r>
       <r>   -0.8921    1.0000 </r>
       <r>   -0.8921    1.0000 </r>
       <r>   -0.8921    1.0000 </r>
       <r>   -0.8921    1.0000 </r>
       <r>    2.8226    0.0000 </r>
       <r>    2.8226    0.0000 </r>
       <r>    8.0763    0.0000 </r>
       <r>    8.0763    0.0000 </r>
       <r>    8.0763    0.0000 </r>
       <r>    8.0763    0.0000 </r>
       <r>    8.2421    0.0000 </r>
       <r>    8.2421    0.0000 </r>
       <r>    9.8345    0.0000 </r>
       <r>    9.8345    0.0000 </r>
       <r>   10.6879    0.0000 </r>
       <r>   10.6879    0.0000 </r>
       <r>   10.6879    0.0000 </r>
       <r>   10.6879    0.0000 </r>
       <r>   11.9030    0.0000 </r>
       <r>   11.9030    0.0000 </r>
       <r>   11.9984    0.0000 </r>
       <r>   11.9984    0.0000 </r>
       <r>   11.9984    0.0000 </r>
       <r>   11.9984    0.0000 </r>
       <r>   14.6543    0.0000 </r>
       <r>   14.6543    0.0000 </r>
       <r>   18.9190    0.0000 </r>
       <r>   18.9190    0.0000 </r>
       <r>   18.9538    0.0000 </r>
       <r>   18.9538    0.0000 </r>
       <r>   18.9538    0.0000 </r>
       <r>   18.9538    0.0000 </r>
       <r>   21.9824    0.0000 </r>
       <r>   21.9824    0.0000 </r>
       <r>   23.1656    0.0000 </r>
       <r>   23.1656    0.0000 </r>
       <r>   23.1656    0.0000 </r>
       <r>   23.1656    0.0000 </r>
       <r>   23.9212    0.0000 </r>
       <r>   23.9212    0.0000 </r>
       <r>   25.5532    0.0000 </r>
       <r>   25.5532    0.0000 </r>
       <r>   25.6024    0.0000 </r>
       <r>   25.6024    0.0000 </r>
       <r>   25.6024    0.0000 </r>
       <r>   25.6024    0.0000 </r>
       <r>   25.9720    0.0000 </r>
       <r>   25.9720    0.0000 </r>
       <r>   26.4943    0.0000 </r>
       <r>   26.4943    0.0000 </r>
       <r>   26.4943    0.0000 </r>
       <r>   26.4943    0.0000 </r>
       <r>   26.7906    0.0000 </r>
       <r>   26.7906    0.0000 </r>
       <r>   26.7906    0.0000 </r>
       <r>   26.7906    0.0000 </r>
       <r>   28.4338    0.0000 </r>
       <r>   28.4338    0.0000 </r>
       <r>   34.3223    0.0000 </r>
       <r>   34.3223    0.0000 </r>
       <r>   34.3530    0.0000 </r>
       <r>   34.3530    0.0000 </r>
       <r>   34.3530    0.0000 </r>
       <r>   34.3530    0.0000 </r>
       <r>   36.5204    0.0000 </r>
       <r>   36.5204    0.0000 </r>
       <r>   36.5204    0.0000 </r>
       <r>   36.5204    0.0000 </r>
       <r>   36.6751    0.0000 </r>
       <r>   36.6751    0.0000 </r>
       <r>   36.9762    0.0000 </r>
       <r>   36.9762    0.0000 </r>
       <r>   36.9762    0.0000 </r>
       <r>   36.9762    0.0000 </r>
       <r>   36.9762    0.0000 </r>
       <r>   36.9762    0.0000 </r>
       <r>   37.6842    0.0000 </r>
       <r>   37.6842    0.0000 </r>
       <r>   37.6842    0.0000 </r>
       <r>   37.6842    0.0000 </r>
       <r>   37.8678    0.0000 </r>
       <r>   37.8678    0.0000 </r>
       <r>   38.2429    0.0000 </r>
       <r>   38.2429    0.0000 </r>
       <r>   38.2429    0.0000 </r>
       <r>   38.2429    0.0000 </r>
       <r>   39.9507    0.0000 </r>
       <r>   39.9507    0.0000 </r>
       <r>   39.9507    0.0000 </r>
       <r>   39.9507    0.0000 </r>
       <r>   39.9877    0.0000 </r>
       <r>   39.9877    0.0000 </r>
       <r>   40.6847    0.0000 </r>
       <r>   40.6847    0.0000 </r>
       <r>   40.6847    0.0000 </r>
       <r>   40.6847    0.0000 </r>
       <r>   40.6939    0.0000 </r>
       <r>   40.6939    0.0000 </r>
       <r>   42.7945    0.0000 </r>
       <r>   42.7945    0.0000 </r>
       <r>   42.8142    0.0000 </r>
       <r>   42.8142    0.0000 </r>
       <r>   42.8142    0.0000 </r>
       <r>   42.8142    0.0000 </r>
       <r>   43.2467    0.0000 </r>
       <r>   43.2467    0.0000 </r>
       <r>   43.8065    0.0000 </r>
       <r>   43.8065    0.0000 </r>
       <r>   44.1597    0.0000 </r>
       <r>   44.1597    0.0000 </r>
       <r>   44.1597    0.0000 </r>
       <r>   44.1597    0.0000 </r>
       <r>   44.1768    0.0000 </r>
       <r>   44.1768    0.0000 </r>
       <r>   44.4468    0.0000 </r>
       <r>   44.4468    0.0000 </r>
       <r>   44.4979    0.0000 </r>
       <r>   44.4979    0.0000 </r>
       <r>   44.4979    0.0000 </r>
       <r>   44.4979    0.0000 </r>
       <r>   47.6532    0.0000 </r>
       <r>   47.6532    0.0000 </r>
       <r>   47.6532    0.0000 </r>
       <r>   47.6532    0.0000 </r>
       <r>   47.7713    0.0000 </r>
       <r>   47.7713    0.0000 </r>
       <r>   50.3493    0.0000 </r>
       <r>   50.3493    0.0000 </r>
       <r>   56.9297    0.0000 </r>
       <r>   56.9297    0.0000 </r>
       <r>   57.2019    0.0000 </r>
       <r>   57.2019    0.0000 </r>
       <r>   57.2019    0.0000 </r>
       <r>   57.2019    0.0000 </r>
       <r>   60.3580    0.0000 </r>
       <r>   60.3580    0.0000 </r>
       <r>   60.6681    0.0000 </r>
       <r>   60.6681    0.0000 </r>
       <r>   60.6681    0.0000 </r>
       <r>   60.6681    0.0000 </r>
       <r>   63.7208    0.0000 </r>
       <r>   63.7208    0.0000 </r>
       <r>   63.7208    0.0000 </r>
       <r>   63.7208    0.0000 </r>
       <r>   65.1736    0.0000 </r>
       <r>   65.1736    0.0000 </r>
       <r>   65.1736    0.0000 </r>
       <r>   65.1736    0.0000 </r>
       <r>   65.2598    0.0000 </r>
       <r>   65.2598    0.0000 </r>
       <r>   67.5656    0.0000 </r>
       <r>   67.5656    0.0000 </r>
       <r>   68.1100    0.0000 </r>
       <r>   68.1100    0.0000 </r>
       <r>   68.1100    0.0000 </r>
       <r>   68.1100    0.0000 </r>
       <r>   68.1100    0.0000 </r>
       <r>   68.1100    0.0000 </r>
       <r>   68.6664    0.0000 </r>
       <r>   68.6664    0.0000 </r>
       <r>   68.6664    0.0000 </r>
       <r>   68.6664    0.0000 </r>
       <r>   69.6960    0.0000 </r>
       <r>   69.6960    0.0000 </r>
       <r>   69.6960    0.0000 </r>
       <r>   69.6960    0.0000 </r>
       <r>   70.5129    0.0000 </r>
       <r>   70.5129    0.0000 </r>
       <r>   70.5129    0.0000 </r>
       <r>   70.5129    0.0000 </r>
       <r>   70.6703    0.0000 </r>
       <r>   70.6703    0.0000 </r>
       <r>   70.6781    0.0000 </r>
       <r>   70.6781    0.0000 </r>
       <r>   70.6781    0.0000 </r>
       <r>   70.6781    0.0000 </r>
       <r>   70.7984    0.0000 </r>
       <r>   70.7984    0.0000 </r>
       <r>   70.7984    0.0000 </r>
       <r>   70.7984    0.0000 </r>
       <r>   70.7984    0.0000 </r>
       <r>   70.7984    0.0000 </r>
       <r>   70.8440    0.0000 </r>
       <r>   70.8440    0.0000 </r>
       <r>   70.8621    0.0000 </r>
       <r>   70.8621    0.0000 </r>
       <r>   72.0722    0.0000 </r>
       <r>   72.0722    0.0000 </r>
       <r>   72.0827    0.0000 </r>
       <r>   72.0827    0.0000 </r>
       <r>   72.0827    0.0000 </r>
       <r>   72.0827    0.0000 </r>
       <r>   72.9851    0.0000 </r>
       <r>   72.9851    0.0000 </r>
       <r>   73.9807    0.0000 </r>
       <r>   73.9807    0.0000 </r>
       <r>   73.9807    0.0000 </r>
       <r>   73.9807    0.0000 </r>
       <r>   74.4226    0.0000 </r>
       <r>   74.4226    0.0000 </r>
       <r>   74.4294    0.0000 </r>
       <r>   74.4294    0.0000 </r>
       <r>   74.4294    0.0000 </r>
       <r>   74.4294    0.0000 </r>
       <r>   74.4700    0.0000 </r>
       <r>   74.4700    0.0000 </r>
       <r>   74.7879    0.0000 </r>
       <r>   74.7879    0.0000 </r>
       <r>   74.7879    0.0000 </r>
       <r>   74.7879    0.0000 </r>
       <r>   74.8342    0.0000 </r>
       <r>   74.8342    0.0000 </r>
       <r>   75.1010    0.0000 </r>
       <r>   75.1010    0.0000 </r>
       <r>   75.1010    0.0000 </r>
       <r>   75.1010    0.0000 </r>
       <r>   75.2837    0.0000 </r>
       <r>   75.2837    0.0000 </r>
       <r>   75.7828    0.0000 </r>
       <r>   75.7828    0.0000 </r>
       <r>   75.7828    0.0000 </r>
       <r>   75.7828    0.0000 </r>
       <r>   78.0367    0.0000 </r>
       <r>   78.0367    0.0000 </r>
       <r>   78.1125    0.0000 </r>
       <r>   78.1125    0.0000 </r>
       <r>   78.1125    0.0000 </r>
       <r>   78.1125    0.0000 </r>
       <r>   78.7910    0.0000 </r>
       <r>   78.7910    0.0000 </r>
       <r>   79.0135    0.0000 </r>
       <r>   79.0135    0.0000 </r>
       <r>   79.0742    0.0000 </r>
       <r>   79.0742    0.0000 </r>
       <r>   79.0742    0.0000 </r>
       <r>   79.0742    0.0000 </r>
       <r>   85.6675    0.0000 </r>
       <r>   85.6675    0.0000 </r>
       <r>   85.6675    0.0000 </r>
       <r>   85.6675    0.0000 </r>
       <r>   85.6855    0.0000 </r>
       <r>   85.6855    0.0000 </r>
       <r>   86.1867    0.0000 </r>
       <r>   86.1867    0.0000 </r>
       <r>   86.1867    0.0000 </r>
       <r>   86.1867    0.0000 </r>
       <r>   86.1867    0.0000 </r>
       <r>   86.1867    0.0000 </r>
       <r>   86.4597    0.0000 </r>
       <r>   86.4597    0.0000 </r>
       <r>   86.4597    0.0000 </r>
       <r>   86.4597    0.0000 </r>
       <r>   89.3664    0.0000 </r>
       <r>   89.3664    0.0000 </r>
       <r>   89.6019    0.0000 </r>
       <r>   89.6019    0.0000 </r>
       <r>   89.6019    0.0000 </r>
       <r>   89.6019    0.0000 </r>
       <r>   89.7458    0.0000 </r>
       <r>   89.7458    0.0000 </r>
       <r>   89.7458    0.0000 </r>
       <r>   89.7458    0.0000 </r>
       <r>   90.0469    0.0000 </r>
       <r>   90.0469    0.0000 </r>
       <r>   90.2636    0.0000 </r>
       <r>   90.2636    0.0000 </r>
       <r>   90.2636    0.0000 </r>
       <r>   90.2636    0.0000 </r>
       <r>   90.4558    0.0000 </r>
       <r>   90.4558    0.0000 </r>
       <r>   91.0630    0.0000 </r>
       <r>   91.0630    0.0000 </r>
       <r>   91.0955    0.0000 </r>
       <r>   91.0955    0.0000 </r>
       <r>   91.0955    0.0000 </r>
       <r>   91.0955    0.0000 </r>
       <r>   91.3493    0.0000 </r>
       <r>   91.3493    0.0000 </r>
       <r>   92.6919    0.0000 </r>
       <r>   92.6919    0.0000 </r>
       <r>   92.6919    0.0000 </r>
       <r>   92.6919    0.0000 </r>
       <r>   94.6188    0.0000 </r>
       <r>   94.6188    0.0000 </r>
       <r>   97.9896    0.0000 </r>
       <r>   97.9896    0.0000 </r>
       <r>   98.3506    0.0000 </r>
       <r>   98.3506    0.0000 </r>
       <r>   98.3837    0.0000 </r>
       <r>   98.3837    0.0000 </r>
       <r>   98.3837    0.0000 </r>
       <r>   98.3837    0.0000 </r>
       <r>   98.5374    0.0000 </r>
       <r>   98.5374    0.0000 </r>
       <r>   98.5374    0.0000 </r>
       <r>   98.5374    0.0000 </r>
       <r>   98.5380    0.0000 </r>
       <r>   98.5380    0.0000 </r>
       <r>   98.7502    0.0000 </r>
       <r>   98.7502    0.0000 </r>
       <r>   98.7502    0.0000 </r>
       <r>   98.7502    0.0000 </r>
       <r>   98.7502    0.0000 </r>
       <r>   98.7502    0.0000 </r>
       <r>   99.0733    0.0000 </r>
       <r>   99.0733    0.0000 </r>
       <r>   99.0733    0.0000 </r>
       <r>   99.0733    0.0000 </r>
       <r>  100.4805    0.0000 </r>
       <r>  100.4805    0.0000 </r>
       <r>  100.4873    0.0000 </r>
       <r>  100.4873    0.0000 </r>
       <r>  100.4873    0.0000 </r>
       <r>  100.4873    0.0000 </r>
       <r>  101.3151    0.0000 </r>
       <r>  101.3151    0.0000 </r>
       <r>  101.6829    0.0000 </r>
       <r>  101.6829    0.0000 </r>
       <r>  101.6829    0.0000 </r>
       <r>  101.6829    0.0000 </r>
       <r>  101.7268    0.0000 </r>
       <r>  101.7268    0.0000 </r>
       <r>  101.7588    0.0000 </r>
       <r>  101.7588    0.0000 </r>
       <r>  102.1734    0.0000 </r>
       <r>  102.1734    0.0000 </r>
       <r>  102.1734    0.0000 </r>
       <r>  102.1734    0.0000 </r>
       <r>  102.3938    0.0000 </r>
       <r>  102.3938    0.0000 </r>
       <r>  102.3938    0.0000 </r>
       <r>  102.3938    0.0000 </r>
       <r>  102.4442    0.0000 </r>
       <r>  102.4442    0.0000 </r>
       <r>  102.4442    0.0000 </r>
       <r>  102.4442    0.0000 </r>
       <r>  102.4487    0.0000 </r>
       <r>  102.4487    0.0000 </r>
       <r>  105.2827    0.0000 </r>
       <r>  105.2827    0.0000 </r>
       <r>  105.3773    0.0000 </r>
       <r>  105.3773    0.0000 </r>
       <r>  105.7460    0.0000 </r>
       <r>  105.7460    0.0000 </r>
       <r>  105.8596    0.0000 </r>
       <r>  105.8596    0.0000 </r>
       <r>  105.8596    0.0000 </r>
       <r>  105.8596    0.0000 </r>
       <r>  114.1451    0.0000 </r>
       <r>  114.1451    0.0000 </r>
       <r>  114.1451    0.0000 </r>
       <r>  114.1451    0.0000 </r>
       <r>  117.6083    0.0000 </r>
       <r>  117.6083    0.0000 </r>
       <r>  117.6083    0.0000 </r>
       <r>  117.6083    0.0000 </r>
       <r>  117.6822    0.0000 </r>
       <r>  117.6822    0.0000 </r>
       <r>  118.5074    0.0000 </r>
       <r>  118.5074    0.0000 </r>
       <r>  119.6475    0.0000 </r>
       <r>  119.6475    0.0000 </r>
       <r>  119.6475    0.0000 </r>
       <r>  119.6475    0.0000 </r>
       <r>  120.8209    0.0000 </r>
       <r>  120.8209    0.0000 </r>
       <r>  120.8359    0.0000 </r>
       <r>  120.8359    0.0000 </r>
       <r>  120.8359    0.0000 </r>
       <r>  120.8359    0.0000 </r>
      </set>
      <set comment="kpoint 2">
       <r>  -43.7664    1.0000 </r>
       <r>  -43.7664    1.0000 </r>
       <r>  -43.7663    1.0000 </r>
       <r>  -43.7663    1.0000 </r>
       <r>  -39.3627    1.0000 </r>
       <r>  -39.3627    1.0000 </r>
       <r>  -39.3622    1.0000 </r>
       <r>  -39.3622    1.0000 </r>
       <r>  -39.3619    1.0000 </r>
       <r>  -39.3619    1.0000 </r>
       <r>  -17.0197    1.0000 </r>
       <r>  -17.0197    1.0000 </r>
       <r>   -4.8232    1.0000 </r>
       <r>   -4.8232    1.0000 </r>
       <r>   -1.4823    1.0000 </r>
       <r>   -1.4823    1.0000 </r>
       <r>   -0.9708    1.0000 </r>
       <r>   -0.9708    1.0000 </r>
       <r>    3.7103    0.0000 </r>
       <r>    3.7103    0.0000 </r>
       <r>    7.3844    0.0000 </r>
       <r>    7.3844    0.0000 </r>
       <r>    8.2708    0.0000 </r>
       <r>    8.2708    0.0000 </r>
       <r>    8.4292    0.0000 </r>
       <r>    8.4292    0.0000 </r>
       <r>    9.8637    0.0000 </r>
       <r>    9.8637    0.0000 </r>
       <r>    9.9474    0.0000 </r>
       <r>    9.9474    0.0000 </r>
       <r>   10.6658    0.0000 </r>
       <r>   10.6658    0.0000 </r>
       <r>   11.9076    0.0000 </r>
       <r>   11.9076    0.0000 </r>
       <r>   13.5925    0.0000 </r>
       <r>   13.5925    0.0000 </r>
       <r>   13.6431    0.0000 </r>
       <r>   13.6431    0.0000 </r>
       <r>   16.3967    0.0000 </r>
       <r>   16.3967    0.0000 </r>
       <r>   17.9843    0.0000 </r>
       <r>   17.9843    0.0000 </r>
       <r>   18.0698    0.0000 </r>
       <r>   18.0698    0.0000 </r>
       <r>   19.0046    0.0000 </r>
       <r>   19.0046    0.0000 </r>
       <r>   19.9905    0.0000 </r>
       <r>   19.9905    0.0000 </r>
       <r>   21.9816    0.0000 </r>
       <r>   21.9816    0.0000 </r>
       <r>   22.5688    0.0000 </r>
       <r>   22.5688    0.0000 </r>
       <r>   23.5514    0.0000 </r>
       <r>   23.5514    0.0000 </r>
       <r>   24.5628    0.0000 </r>
       <r>   24.5628    0.0000 </r>
       <r>   24.6981    0.0000 </r>
       <r>   24.6981    0.0000 </r>
       <r>   24.8375    0.0000 </r>
       <r>   24.8375    0.0000 </r>
       <r>   26.2828    0.0000 </r>
       <r>   26.2828    0.0000 </r>
       <r>   26.5325    0.0000 </r>
       <r>   26.5325    0.0000 </r>
       <r>   27.3649    0.0000 </r>
       <r>   27.3649    0.0000 </r>
       <r>   27.8161    0.0000 </r>
       <r>   27.8161    0.0000 </r>
       <r>   28.5346    0.0000 </r>
       <r>   28.5346    0.0000 </r>
       <r>   31.4514    0.0000 </r>
       <r>   31.4514    0.0000 </r>
       <r>   33.0881    0.0000 </r>
       <r>   33.0881    0.0000 </r>
       <r>   33.1841    0.0000 </r>
       <r>   33.1841    0.0000 </r>
       <r>   33.4446    0.0000 </r>
       <r>   33.4446    0.0000 </r>
       <r>   33.4544    0.0000 </r>
       <r>   33.4544    0.0000 </r>
       <r>   34.2768    0.0000 </r>
       <r>   34.2768    0.0000 </r>
       <r>   34.5257    0.0000 </r>
       <r>   34.5257    0.0000 </r>
       <r>   36.3981    0.0000 </r>
       <r>   36.3981    0.0000 </r>
       <r>   36.5371    0.0000 </r>
       <r>   36.5371    0.0000 </r>
       <r>   36.9302    0.0000 </r>
       <r>   36.9302    0.0000 </r>
       <r>   37.1579    0.0000 </r>
       <r>   37.1579    0.0000 </r>
       <r>   37.2400    0.0000 </r>
       <r>   37.2400    0.0000 </r>
       <r>   37.9741    0.0000 </r>
       <r>   37.9741    0.0000 </r>
       <r>   38.0058    0.0000 </r>
       <r>   38.0058    0.0000 </r>
       <r>   38.1993    0.0000 </r>
       <r>   38.1993    0.0000 </r>
       <r>   38.4772    0.0000 </r>
       <r>   38.4772    0.0000 </r>
       <r>   40.2004    0.0000 </r>
       <r>   40.2004    0.0000 </r>
       <r>   40.3119    0.0000 </r>
       <r>   40.3119    0.0000 </r>
       <r>   40.8254    0.0000 </r>
       <r>   40.8254    0.0000 </r>
       <r>   41.7566    0.0000 </r>
       <r>   41.7566    0.0000 </r>
       <r>   41.9882    0.0000 </r>
       <r>   41.9882    0.0000 </r>
       <r>   41.9894    0.0000 </r>
       <r>   41.9894    0.0000 </r>
       <r>   44.0066    0.0000 </r>
       <r>   44.0066    0.0000 </r>
       <r>   44.0905    0.0000 </r>
       <r>   44.0905    0.0000 </r>
       <r>   45.0455    0.0000 </r>
       <r>   45.0455    0.0000 </r>
       <r>   45.3085    0.0000 </r>
       <r>   45.3085    0.0000 </r>
       <r>   45.7609    0.0000 </r>
       <r>   45.7609    0.0000 </r>
       <r>   45.8876    0.0000 </r>
       <r>   45.8876    0.0000 </r>
       <r>   45.9410    0.0000 </r>
       <r>   45.9410    0.0000 </r>
       <r>   47.1743    0.0000 </r>
       <r>   47.1743    0.0000 </r>
       <r>   47.2415    0.0000 </r>
       <r>   47.2415    0.0000 </r>
       <r>   47.7010    0.0000 </r>
       <r>   47.7010    0.0000 </r>
       <r>   48.3611    0.0000 </r>
       <r>   48.3611    0.0000 </r>
       <r>   48.4125    0.0000 </r>
       <r>   48.4125    0.0000 </r>
       <r>   49.7059    0.0000 </r>
       <r>   49.7059    0.0000 </r>
       <r>   52.1083    0.0000 </r>
       <r>   52.1083    0.0000 </r>
       <r>   54.6450    0.0000 </r>
       <r>   54.6450    0.0000 </r>
       <r>   54.7049    0.0000 </r>
       <r>   54.7049    0.0000 </r>
       <r>   55.5249    0.0000 </r>
       <r>   55.5249    0.0000 </r>
       <r>   59.9290    0.0000 </r>
       <r>   59.9290    0.0000 </r>
       <r>   60.2330    0.0000 </r>
       <r>   60.2330    0.0000 </r>
       <r>   61.6460    0.0000 </r>
       <r>   61.6460    0.0000 </r>
       <r>   61.7721    0.0000 </r>
       <r>   61.7721    0.0000 </r>
       <r>   61.7956    0.0000 </r>
       <r>   61.7956    0.0000 </r>
       <r>   62.4961    0.0000 </r>
       <r>   62.4961    0.0000 </r>
       <r>   64.0471    0.0000 </r>
       <r>   64.0471    0.0000 </r>
       <r>   64.5617    0.0000 </r>
       <r>   64.5617    0.0000 </r>
       <r>   64.8042    0.0000 </r>
       <r>   64.8042    0.0000 </r>
       <r>   64.8123    0.0000 </r>
       <r>   64.8123    0.0000 </r>
       <r>   65.4820    0.0000 </r>
       <r>   65.4820    0.0000 </r>
       <r>   65.5787    0.0000 </r>
       <r>   65.5787    0.0000 </r>
       <r>   66.4755    0.0000 </r>
       <r>   66.4755    0.0000 </r>
       <r>   66.6381    0.0000 </r>
       <r>   66.6381    0.0000 </r>
       <r>   67.2870    0.0000 </r>
       <r>   67.2870    0.0000 </r>
       <r>   67.7261    0.0000 </r>
       <r>   67.7261    0.0000 </r>
       <r>   67.8147    0.0000 </r>
       <r>   67.8147    0.0000 </r>
       <r>   68.6565    0.0000 </r>
       <r>   68.6565    0.0000 </r>
       <r>   69.0848    0.0000 </r>
       <r>   69.0848    0.0000 </r>
       <r>   69.4479    0.0000 </r>
       <r>   69.4479    0.0000 </r>
       <r>   69.6840    0.0000 </r>
       <r>   69.6840    0.0000 </r>
       <r>   69.7571    0.0000 </r>
       <r>   69.7571    0.0000 </r>
       <r>   70.8712    0.0000 </r>
       <r>   70.8712    0.0000 </r>
       <r>   71.2295    0.0000 </r>
       <r>   71.2295    0.0000 </r>
       <r>   71.2731    0.0000 </r>
       <r>   71.2731    0.0000 </r>
       <r>   71.4886    0.0000 </r>
       <r>   71.4886    0.0000 </r>
       <r>   72.5498    0.0000 </r>
       <r>   72.5498    0.0000 </r>
       <r>   72.7854    0.0000 </r>
       <r>   72.7854    0.0000 </r>
       <r>   72.8142    0.0000 </r>
       <r>   72.8142    0.0000 </r>
       <r>   72.8312    0.0000 </r>
       <r>   72.8312    0.0000 </r>
       <r>   73.1032    0.0000 </r>
       <r>   73.1032    0.0000 </r>
       <r>   73.6311    0.0000 </r>
       <r>   73.6311    0.0000 </r>
       <r>   74.2565    0.0000 </r>
       <r>   74.2565    0.0000 </r>
       <r>   76.0623    0.0000 </r>
       <r>   76.0623    0.0000 </r>
       <r>   76.1475    0.0000 </r>
       <r>   76.1475    0.0000 </r>
       <r>   76.1934    0.0000 </r>
       <r>   76.1934    0.0000 </r>
       <r>   76.3823    0.0000 </r>
       <r>   76.3823    0.0000 </r>
       <r>   76.9912    0.0000 </r>
       <r>   76.9912    0.0000 </r>
       <r>   77.4103    0.0000 </r>
       <r>   77.4103    0.0000 </r>
       <r>   77.4597    0.0000 </r>
       <r>   77.4597    0.0000 </r>
       <r>   78.0474    0.0000 </r>
       <r>   78.0474    0.0000 </r>
       <r>   78.4290    0.0000 </r>
       <r>   78.4290    0.0000 </r>
       <r>   78.5117    0.0000 </r>
       <r>   78.5117    0.0000 </r>
       <r>   78.5577    0.0000 </r>
       <r>   78.5577    0.0000 </r>
       <r>   79.8309    0.0000 </r>
       <r>   79.8309    0.0000 </r>
       <r>   80.2064    0.0000 </r>
       <r>   80.2064    0.0000 </r>
       <r>   80.2504    0.0000 </r>
       <r>   80.2504    0.0000 </r>
       <r>   80.5797    0.0000 </r>
       <r>   80.5797    0.0000 </r>
       <r>   81.8778    0.0000 </r>
       <r>   81.8778    0.0000 </r>
       <r>   81.9208    0.0000 </r>
       <r>   81.9208    0.0000 </r>
       <r>   82.9619    0.0000 </r>
       <r>   82.9619    0.0000 </r>
       <r>   83.3223    0.0000 </r>
       <r>   83.3223    0.0000 </r>
       <r>   83.3933    0.0000 </r>
       <r>   83.3933    0.0000 </r>
       <r>   83.9095    0.0000 </r>
       <r>   83.9095    0.0000 </r>
       <r>   84.3181    0.0000 </r>
       <r>   84.3181    0.0000 </r>
       <r>   84.4177    0.0000 </r>
       <r>   84.4177    0.0000 </r>
       <r>   85.5596    0.0000 </r>
       <r>   85.5596    0.0000 </r>
       <r>   85.6067    0.0000 </r>
       <r>   85.6067    0.0000 </r>
       <r>   85.6336    0.0000 </r>
       <r>   85.6336    0.0000 </r>
       <r>   85.6781    0.0000 </r>
       <r>   85.6781    0.0000 </r>
       <r>   87.6702    0.0000 </r>
       <r>   87.6702    0.0000 </r>
       <r>   87.7782    0.0000 </r>
       <r>   87.7782    0.0000 </r>
       <r>   87.8560    0.0000 </r>
       <r>   87.8560    0.0000 </r>
       <r>   89.8092    0.0000 </r>
       <r>   89.8092    0.0000 </r>
       <r>   90.2674    0.0000 </r>
       <r>   90.2674    0.0000 </r>
       <r>   90.5455    0.0000 </r>
       <r>   90.5455    0.0000 </r>
       <r>   92.2049    0.0000 </r>
       <r>   92.2049    0.0000 </r>
       <r>   92.3025    0.0000 </r>
       <r>   92.3025    0.0000 </r>
       <r>   92.3767    0.0000 </r>
       <r>   92.3767    0.0000 </r>
       <r>   92.5404    0.0000 </r>
       <r>   92.5404    0.0000 </r>
       <r>   92.7905    0.0000 </r>
       <r>   92.7905    0.0000 </r>
       <r>   93.1194    0.0000 </r>
       <r>   93.1194    0.0000 </r>
       <r>   93.1314    0.0000 </r>
       <r>   93.1314    0.0000 </r>
       <r>   93.6439    0.0000 </r>
       <r>   93.6439    0.0000 </r>
       <r>   93.7160    0.0000 </r>
       <r>   93.7160    0.0000 </r>
       <r>   93.9629    0.0000 </r>
       <r>   93.9629    0.0000 </r>
       <r>   95.1837    0.0000 </r>
       <r>   95.1837    0.0000 </r>
       <r>   95.3068    0.0000 </r>
       <r>   95.3068    0.0000 </r>
       <r>   95.4749    0.0000 </r>
       <r>   95.4749    0.0000 </r>
       <r>   96.2967    0.0000 </r>
       <r>   96.2967    0.0000 </r>
       <r>   96.3880    0.0000 </r>
       <r>   96.3880    0.0000 </r>
       <r>   97.0068    0.0000 </r>
       <r>   97.0068    0.0000 </r>
       <r>   97.4801    0.0000 </r>
       <r>   97.4801    0.0000 </r>
       <r>   97.5602    0.0000 </r>
       <r>   97.5602    0.0000 </r>
       <r>   98.4498    0.0000 </r>
       <r>   98.4498    0.0000 </r>
       <r>   98.4846    0.0000 </r>
       <r>   98.4846    0.0000 </r>
       <r>   98.6875    0.0000 </r>
       <r>   98.6875    0.0000 </r>
       <r>   99.0913    0.0000 </r>
       <r>   99.0913    0.0000 </r>
       <r>   99.1208    0.0000 </r>
       <r>   99.1208    0.0000 </r>
       <r>   99.6342    0.0000 </r>
       <r>   99.6342    0.0000 </r>
       <r>  103.3189    0.0000 </r>
       <r>  103.3189    0.0000 </r>
       <r>  103.7117    0.0000 </r>
       <r>  103.7117    0.0000 </r>
       <r>  103.7161    0.0000 </r>
       <r>  103.7161    0.0000 </r>
       <r>  104.4191    0.0000 </r>
       <r>  104.4191    0.0000 </r>
       <r>  104.6852    0.0000 </r>
       <r>  104.6852    0.0000 </r>
       <r>  105.4115    0.0000 </r>
       <r>  105.4115    0.0000 </r>
       <r>  105.9044    0.0000 </r>
       <r>  105.9044    0.0000 </r>
       <r>  106.3564    0.0000 </r>
       <r>  106.3564    0.0000 </r>
       <r>  106.8903    0.0000 </r>
       <r>  106.8903    0.0000 </r>
       <r>  106.9363    0.0000 </r>
       <r>  106.9363    0.0000 </r>
       <r>  107.9603    0.0000 </r>
       <r>  107.9603    0.0000 </r>
       <r>  108.3494    0.0000 </r>
       <r>  108.3494    0.0000 </r>
       <r>  108.5636    0.0000 </r>
       <r>  108.5636    0.0000 </r>
       <r>  109.8711    0.0000 </r>
       <r>  109.8711    0.0000 </r>
       <r>  110.0982    0.0000 </r>
       <r>  110.0982    0.0000 </r>
       <r>  110.1209    0.0000 </r>
       <r>  110.1209    0.0000 </r>
       <r>  110.1852    0.0000 </r>
       <r>  110.1852    0.0000 </r>
       <r>  110.5802    0.0000 </r>
       <r>  110.5802    0.0000 </r>
       <r>  110.5982    0.0000 </r>
       <r>  110.5982    0.0000 </r>
       <r>  113.7383    0.0000 </r>
       <r>  113.7383    0.0000 </r>
       <r>  115.2785    0.0000 </r>
       <r>  115.2785    0.0000 </r>
       <r>  115.7139    0.0000 </r>
       <r>  115.7139    0.0000 </r>
       <r>  115.7643    0.0000 </r>
       <r>  115.7643    0.0000 </r>
       <r>  116.5949    0.0000 </r>
       <r>  116.5949    0.0000 </r>
       <r>  116.6643    0.0000 </r>
       <r>  116.6643    0.0000 </r>
       <r>  117.5712    0.0000 </r>
       <r>  117.5712    0.0000 </r>
       <r>  117.6494    0.0000 </r>
       <r>  117.6494    0.0000 </r>
       <r>  119.2059    0.0000 </r>
       <r>  119.2059    0.0000 </r>
      </set>
      <set comment="kpoint 3">
       <r>  -43.7663    1.0000 </r>
       <r>  -43.7663    1.0000 </r>
       <r>  -43.7661    1.0000 </r>
       <r>  -43.7661    1.0000 </r>
       <r>  -39.3634    1.0000 </r>
       <r>  -39.3634    1.0000 </r>
       <r>  -39.3626    1.0000 </r>
       <r>  -39.3626    1.0000 </r>
       <r>  -39.3623    1.0000 </r>
       <r>  -39.3623    1.0000 </r>
       <r>  -16.9352    1.0000 </r>
       <r>  -16.9352    1.0000 </r>
       <r>   -5.1722    1.0000 </r>
       <r>   -5.1722    1.0000 </r>
       <r>   -2.2082    1.0000 </r>
       <r>   -2.2082    1.0000 </r>
       <r>   -1.1187    1.0000 </r>
       <r>   -1.1187    1.0000 </r>
       <r>    4.5671    0.0000 </r>
       <r>    4.5671    0.0000 </r>
       <r>    7.7662    0.0000 </r>
       <r>    7.7662    0.0000 </r>
       <r>    7.9474    0.0000 </r>
       <r>    7.9474    0.0000 </r>
       <r>    8.1263    0.0000 </r>
       <r>    8.1263    0.0000 </r>
       <r>    9.8990    0.0000 </r>
       <r>    9.8990    0.0000 </r>
       <r>   10.6792    0.0000 </r>
       <r>   10.6792    0.0000 </r>
       <r>   10.8168    0.0000 </r>
       <r>   10.8168    0.0000 </r>
       <r>   14.8222    0.0000 </r>
       <r>   14.8222    0.0000 </r>
       <r>   15.4039    0.0000 </r>
       <r>   15.4039    0.0000 </r>
       <r>   15.6339    0.0000 </r>
       <r>   15.6339    0.0000 </r>
       <r>   15.9825    0.0000 </r>
       <r>   15.9825    0.0000 </r>
       <r>   16.1233    0.0000 </r>
       <r>   16.1233    0.0000 </r>
       <r>   16.2933    0.0000 </r>
       <r>   16.2933    0.0000 </r>
       <r>   19.1315    0.0000 </r>
       <r>   19.1315    0.0000 </r>
       <r>   19.4403    0.0000 </r>
       <r>   19.4403    0.0000 </r>
       <r>   21.6685    0.0000 </r>
       <r>   21.6685    0.0000 </r>
       <r>   22.2119    0.0000 </r>
       <r>   22.2119    0.0000 </r>
       <r>   22.4848    0.0000 </r>
       <r>   22.4848    0.0000 </r>
       <r>   23.5252    0.0000 </r>
       <r>   23.5252    0.0000 </r>
       <r>   23.9099    0.0000 </r>
       <r>   23.9099    0.0000 </r>
       <r>   24.5299    0.0000 </r>
       <r>   24.5299    0.0000 </r>
       <r>   26.6516    0.0000 </r>
       <r>   26.6516    0.0000 </r>
       <r>   26.7343    0.0000 </r>
       <r>   26.7343    0.0000 </r>
       <r>   27.1228    0.0000 </r>
       <r>   27.1228    0.0000 </r>
       <r>   28.0445    0.0000 </r>
       <r>   28.0445    0.0000 </r>
       <r>   28.3387    0.0000 </r>
       <r>   28.3387    0.0000 </r>
       <r>   29.1044    0.0000 </r>
       <r>   29.1044    0.0000 </r>
       <r>   31.4939    0.0000 </r>
       <r>   31.4939    0.0000 </r>
       <r>   31.6361    0.0000 </r>
       <r>   31.6361    0.0000 </r>
       <r>   31.6582    0.0000 </r>
       <r>   31.6582    0.0000 </r>
       <r>   31.7399    0.0000 </r>
       <r>   31.7399    0.0000 </r>
       <r>   32.6630    0.0000 </r>
       <r>   32.6630    0.0000 </r>
       <r>   32.9608    0.0000 </r>
       <r>   32.9608    0.0000 </r>
       <r>   35.9846    0.0000 </r>
       <r>   35.9846    0.0000 </r>
       <r>   36.0594    0.0000 </r>
       <r>   36.0594    0.0000 </r>
       <r>   36.1063    0.0000 </r>
       <r>   36.1063    0.0000 </r>
       <r>   36.7215    0.0000 </r>
       <r>   36.7215    0.0000 </r>
       <r>   36.8591    0.0000 </r>
       <r>   36.8591    0.0000 </r>
       <r>   38.5980    0.0000 </r>
       <r>   38.5980    0.0000 </r>
       <r>   39.0998    0.0000 </r>
       <r>   39.0998    0.0000 </r>
       <r>   39.1164    0.0000 </r>
       <r>   39.1164    0.0000 </r>
       <r>   39.3549    0.0000 </r>
       <r>   39.3549    0.0000 </r>
       <r>   40.5338    0.0000 </r>
       <r>   40.5338    0.0000 </r>
       <r>   41.6119    0.0000 </r>
       <r>   41.6119    0.0000 </r>
       <r>   41.7799    0.0000 </r>
       <r>   41.7799    0.0000 </r>
       <r>   42.4031    0.0000 </r>
       <r>   42.4031    0.0000 </r>
       <r>   43.4494    0.0000 </r>
       <r>   43.4494    0.0000 </r>
       <r>   43.5826    0.0000 </r>
       <r>   43.5826    0.0000 </r>
       <r>   45.7174    0.0000 </r>
       <r>   45.7174    0.0000 </r>
       <r>   47.6090    0.0000 </r>
       <r>   47.6090    0.0000 </r>
       <r>   47.7353    0.0000 </r>
       <r>   47.7353    0.0000 </r>
       <r>   47.9761    0.0000 </r>
       <r>   47.9761    0.0000 </r>
       <r>   48.1182    0.0000 </r>
       <r>   48.1182    0.0000 </r>
       <r>   48.1890    0.0000 </r>
       <r>   48.1890    0.0000 </r>
       <r>   48.9241    0.0000 </r>
       <r>   48.9241    0.0000 </r>
       <r>   50.0234    0.0000 </r>
       <r>   50.0234    0.0000 </r>
       <r>   50.4683    0.0000 </r>
       <r>   50.4683    0.0000 </r>
       <r>   50.5523    0.0000 </r>
       <r>   50.5523    0.0000 </r>
       <r>   51.5485    0.0000 </r>
       <r>   51.5485    0.0000 </r>
       <r>   51.5933    0.0000 </r>
       <r>   51.5933    0.0000 </r>
       <r>   52.4354    0.0000 </r>
       <r>   52.4354    0.0000 </r>
       <r>   52.5419    0.0000 </r>
       <r>   52.5419    0.0000 </r>
       <r>   52.5439    0.0000 </r>
       <r>   52.5439    0.0000 </r>
       <r>   54.7135    0.0000 </r>
       <r>   54.7135    0.0000 </r>
       <r>   54.9048    0.0000 </r>
       <r>   54.9048    0.0000 </r>
       <r>   55.1355    0.0000 </r>
       <r>   55.1355    0.0000 </r>
       <r>   55.1391    0.0000 </r>
       <r>   55.1391    0.0000 </r>
       <r>   58.0598    0.0000 </r>
       <r>   58.0598    0.0000 </r>
       <r>   58.4947    0.0000 </r>
       <r>   58.4947    0.0000 </r>
       <r>   59.0553    0.0000 </r>
       <r>   59.0553    0.0000 </r>
       <r>   59.3377    0.0000 </r>
       <r>   59.3377    0.0000 </r>
       <r>   60.5138    0.0000 </r>
       <r>   60.5138    0.0000 </r>
       <r>   60.5660    0.0000 </r>
       <r>   60.5660    0.0000 </r>
       <r>   60.9750    0.0000 </r>
       <r>   60.9750    0.0000 </r>
       <r>   61.7138    0.0000 </r>
       <r>   61.7138    0.0000 </r>
       <r>   61.7706    0.0000 </r>
       <r>   61.7706    0.0000 </r>
       <r>   62.0298    0.0000 </r>
       <r>   62.0298    0.0000 </r>
       <r>   64.2711    0.0000 </r>
       <r>   64.2711    0.0000 </r>
       <r>   64.4811    0.0000 </r>
       <r>   64.4811    0.0000 </r>
       <r>   67.6588    0.0000 </r>
       <r>   67.6588    0.0000 </r>
       <r>   68.0214    0.0000 </r>
       <r>   68.0214    0.0000 </r>
       <r>   68.1464    0.0000 </r>
       <r>   68.1464    0.0000 </r>
       <r>   68.8895    0.0000 </r>
       <r>   68.8895    0.0000 </r>
       <r>   68.9599    0.0000 </r>
       <r>   68.9599    0.0000 </r>
       <r>   69.5622    0.0000 </r>
       <r>   69.5622    0.0000 </r>
       <r>   69.6640    0.0000 </r>
       <r>   69.6640    0.0000 </r>
       <r>   69.8943    0.0000 </r>
       <r>   69.8943    0.0000 </r>
       <r>   70.3356    0.0000 </r>
       <r>   70.3356    0.0000 </r>
       <r>   70.4763    0.0000 </r>
       <r>   70.4763    0.0000 </r>
       <r>   70.5554    0.0000 </r>
       <r>   70.5554    0.0000 </r>
       <r>   70.7520    0.0000 </r>
       <r>   70.7520    0.0000 </r>
       <r>   71.1040    0.0000 </r>
       <r>   71.1040    0.0000 </r>
       <r>   71.1115    0.0000 </r>
       <r>   71.1115    0.0000 </r>
       <r>   71.5916    0.0000 </r>
       <r>   71.5916    0.0000 </r>
       <r>   73.5428    0.0000 </r>
       <r>   73.5428    0.0000 </r>
       <r>   73.6900    0.0000 </r>
       <r>   73.6900    0.0000 </r>
       <r>   73.8290    0.0000 </r>
       <r>   73.8290    0.0000 </r>
       <r>   74.2967    0.0000 </r>
       <r>   74.2967    0.0000 </r>
       <r>   75.3237    0.0000 </r>
       <r>   75.3237    0.0000 </r>
       <r>   75.3320    0.0000 </r>
       <r>   75.3320    0.0000 </r>
       <r>   76.2512    0.0000 </r>
       <r>   76.2512    0.0000 </r>
       <r>   77.6466    0.0000 </r>
       <r>   77.6466    0.0000 </r>
       <r>   78.5761    0.0000 </r>
       <r>   78.5761    0.0000 </r>
       <r>   78.6438    0.0000 </r>
       <r>   78.6438    0.0000 </r>
       <r>   78.6788    0.0000 </r>
       <r>   78.6788    0.0000 </r>
       <r>   79.1589    0.0000 </r>
       <r>   79.1589    0.0000 </r>
       <r>   79.2131    0.0000 </r>
       <r>   79.2131    0.0000 </r>
       <r>   79.7564    0.0000 </r>
       <r>   79.7564    0.0000 </r>
       <r>   80.2541    0.0000 </r>
       <r>   80.2541    0.0000 </r>
       <r>   80.2688    0.0000 </r>
       <r>   80.2688    0.0000 </r>
       <r>   81.5087    0.0000 </r>
       <r>   81.5087    0.0000 </r>
       <r>   82.0828    0.0000 </r>
       <r>   82.0828    0.0000 </r>
       <r>   83.0813    0.0000 </r>
       <r>   83.0813    0.0000 </r>
       <r>   83.1116    0.0000 </r>
       <r>   83.1116    0.0000 </r>
       <r>   83.1187    0.0000 </r>
       <r>   83.1187    0.0000 </r>
       <r>   83.9214    0.0000 </r>
       <r>   83.9214    0.0000 </r>
       <r>   84.3532    0.0000 </r>
       <r>   84.3532    0.0000 </r>
       <r>   85.1634    0.0000 </r>
       <r>   85.1634    0.0000 </r>
       <r>   85.2795    0.0000 </r>
       <r>   85.2795    0.0000 </r>
       <r>   85.3027    0.0000 </r>
       <r>   85.3027    0.0000 </r>
       <r>   86.4256    0.0000 </r>
       <r>   86.4256    0.0000 </r>
       <r>   86.4355    0.0000 </r>
       <r>   86.4355    0.0000 </r>
       <r>   87.3222    0.0000 </r>
       <r>   87.3222    0.0000 </r>
       <r>   87.3231    0.0000 </r>
       <r>   87.3231    0.0000 </r>
       <r>   87.6865    0.0000 </r>
       <r>   87.6865    0.0000 </r>
       <r>   88.5234    0.0000 </r>
       <r>   88.5234    0.0000 </r>
       <r>   88.9625    0.0000 </r>
       <r>   88.9625    0.0000 </r>
       <r>   89.0789    0.0000 </r>
       <r>   89.0789    0.0000 </r>
       <r>   90.0720    0.0000 </r>
       <r>   90.0720    0.0000 </r>
       <r>   90.3231    0.0000 </r>
       <r>   90.3231    0.0000 </r>
       <r>   90.4521    0.0000 </r>
       <r>   90.4521    0.0000 </r>
       <r>   90.8671    0.0000 </r>
       <r>   90.8671    0.0000 </r>
       <r>   91.3662    0.0000 </r>
       <r>   91.3662    0.0000 </r>
       <r>   91.3943    0.0000 </r>
       <r>   91.3943    0.0000 </r>
       <r>   91.5607    0.0000 </r>
       <r>   91.5607    0.0000 </r>
       <r>   92.0255    0.0000 </r>
       <r>   92.0255    0.0000 </r>
       <r>   92.3345    0.0000 </r>
       <r>   92.3345    0.0000 </r>
       <r>   92.4180    0.0000 </r>
       <r>   92.4180    0.0000 </r>
       <r>   92.4694    0.0000 </r>
       <r>   92.4694    0.0000 </r>
       <r>   93.1719    0.0000 </r>
       <r>   93.1719    0.0000 </r>
       <r>   94.2674    0.0000 </r>
       <r>   94.2674    0.0000 </r>
       <r>   94.6544    0.0000 </r>
       <r>   94.6544    0.0000 </r>
       <r>   94.6593    0.0000 </r>
       <r>   94.6593    0.0000 </r>
       <r>   95.2840    0.0000 </r>
       <r>   95.2840    0.0000 </r>
       <r>   95.4502    0.0000 </r>
       <r>   95.4502    0.0000 </r>
       <r>   95.6537    0.0000 </r>
       <r>   95.6537    0.0000 </r>
       <r>   95.8864    0.0000 </r>
[...]
       <r>    76.5579     0.0000     0.0000 </r>
       <r>    77.1614     0.0000     0.0000 </r>
       <r>    77.7649     0.0000     0.0000 </r>
       <r>    78.3685     0.0000     0.0000 </r>
       <r>    78.9720     0.0000     0.0000 </r>
       <r>    79.5756     0.0000     0.0000 </r>
       <r>    80.1791     0.0000     0.0000 </r>
       <r>    80.7826     0.0000     0.0000 </r>
       <r>    81.3862     0.0000     0.0000 </r>
       <r>    81.9897     0.0000     0.0000 </r>
       <r>    82.5933     0.0000     0.0000 </r>
       <r>    83.1968     0.0000     0.0000 </r>
       <r>    83.8004     0.0000     0.0000 </r>
       <r>    84.4039     0.0000     0.0000 </r>
       <r>    85.0074     0.0000     0.0000 </r>
       <r>    85.6110     0.0000     0.0000 </r>
       <r>    86.2145     0.0000     0.0000 </r>
       <r>    86.8181     0.0000     0.0000 </r>
       <r>    87.4216     0.0000     0.0000 </r>
       <r>    88.0251     0.0000     0.0000 </r>
       <r>    88.6287     0.0000     0.0000 </r>
       <r>    89.2322     0.0000     0.0000 </r>
       <r>    89.8358     0.0000     0.0000 </r>
       <r>    90.4393     0.0000     0.0000 </r>
       <r>    91.0429     0.0000     0.0000 </r>
       <r>    91.6464     0.0000     0.0000 </r>
       <r>    92.2499     0.0000     0.0000 </r>
       <r>    92.8535     0.0000     0.0000 </r>
       <r>    93.4570     0.0000     0.0000 </r>
       <r>    94.0606     0.0000     0.0000 </r>
       <r>    94.6641     0.0000     0.0000 </r>
       <r>    95.2676     0.0000     0.0000 </r>
       <r>    95.8712     0.0000     0.0000 </r>
       <r>    96.4747     0.0000     0.0000 </r>
       <r>    97.0783     0.0000     0.0000 </r>
       <r>    97.6818     0.0000     0.0000 </r>
       <r>    98.2854     0.0000     0.0000 </r>
       <r>    98.8889     0.0000     0.0000 </r>
       <r>    99.4924     0.0000     0.0000 </r>
       <r>   100.0960     0.0000     0.0000 </r>
       <r>   100.6995     0.0000     0.0000 </r>
       <r>   101.3031     0.0000     0.0000 </r>
       <r>   101.9066     0.0000     0.0000 </r>
       <r>   102.5102     0.0000     0.0000 </r>
       <r>   103.1137     0.0000     0.0000 </r>
       <r>   103.7172     0.0000     0.0000 </r>
       <r>   104.3208     0.0000     0.0000 </r>
       <r>   104.9243     0.0000     0.0000 </r>
       <r>   105.5279     0.0000     0.0000 </r>
       <r>   106.1314     0.0000     0.0000 </r>
       <r>   106.7349     0.0000     0.0000 </r>
       <r>   107.3385     0.0000     0.0000 </r>
       <r>   107.9420     0.0000     0.0000 </r>
       <r>   108.5456     0.0000     0.0000 </r>
       <r>   109.1491     0.0000     0.0000 </r>
       <r>   109.7527     0.0000     0.0000 </r>
       <r>   110.3562     0.0000     0.0000 </r>
       <r>   110.9597     0.0000     0.0000 </r>
       <r>   111.5633     0.0000     0.0000 </r>
       <r>   112.1668     0.0000     0.0000 </r>
       <r>   112.7704     0.0000     0.0000 </r>
       <r>   113.3739     0.0000     0.0000 </r>
       <r>   113.9774     0.0000     0.0000 </r>
       <r>   114.5810     0.0000     0.0000 </r>
       <r>   115.1845     0.0000     0.0000 </r>
       <r>   115.7881     0.0000     0.0000 </r>
       <r>   116.3916     0.0000     0.0000 </r>
       <r>   116.9952     0.0000     0.0000 </r>
       <r>   117.5987     0.0000     0.0000 </r>
       <r>   118.2022     0.0000     0.0000 </r>
       <r>   118.8058     0.0000     0.0000 </r>
       <r>   119.4093     0.0000     0.0000 </r>
       <r>   120.0129     0.0000     0.0000 </r>
       <r>   120.6164     0.0000     0.0000 </r>
       <r>   121.2199     0.0000     0.0000 </r>
       <r>   121.8235     0.0000     0.0000 </r>
       <r>   122.4270     0.0000     0.0000 </r>
       <r>   123.0306     0.0000     0.0000 </r>
       <r>   123.6341     0.0000     0.0000 </r>
       <r>   124.2377     0.0000     0.0000 </r>
       <r>   124.8412     0.0000     0.0000 </r>
       <r>   125.4447     0.0000     0.0000 </r>
       <r>   126.0483     0.0000     0.0000 </r>
       <r>   126.6518     0.0000     0.0000 </r>
       <r>   127.2554     0.0000     0.0000 </r>
       <r>   127.8589     0.0000     0.0000 </r>
       <r>   128.4624     0.0000     0.0000 </r>
       <r>   129.0660     0.0000     0.0000 </r>
      </set>
      <set comment="spin 4">
       <r>   -51.9965     0.0000     0.0000 </r>
       <r>   -51.3930     0.0000     0.0000 </r>
       <r>   -50.7895     0.0000     0.0000 </r>
       <r>   -50.1859     0.0000     0.0000 </r>
       <r>   -49.5824     0.0000     0.0000 </r>
       <r>   -48.9788     0.0000     0.0000 </r>
       <r>   -48.3753     0.0000     0.0000 </r>
       <r>   -47.7717     0.0000     0.0000 </r>
       <r>   -47.1682     0.0000     0.0000 </r>
       <r>   -46.5647     0.0000     0.0000 </r>
       <r>   -45.9611     0.0000     0.0000 </r>
       <r>   -45.3576     0.0000     0.0000 </r>
       <r>   -44.7540     0.0000     0.0000 </r>
       <r>   -44.1505     0.0000     0.0000 </r>
       <r>   -43.5470     0.0000     0.0000 </r>
       <r>   -42.9434     0.0000     0.0000 </r>
       <r>   -42.3399     0.0000     0.0000 </r>
       <r>   -41.7363     0.0000     0.0000 </r>
       <r>   -41.1328     0.0000     0.0000 </r>
       <r>   -40.5292     0.0000     0.0000 </r>
       <r>   -39.9257     0.0000     0.0000 </r>
       <r>   -39.3222     0.0000     0.0000 </r>
       <r>   -38.7186     0.0000     0.0000 </r>
       <r>   -38.1151     0.0000     0.0000 </r>
       <r>   -37.5115     0.0000     0.0000 </r>
       <r>   -36.9080     0.0000     0.0000 </r>
       <r>   -36.3045     0.0000     0.0000 </r>
       <r>   -35.7009     0.0000     0.0000 </r>
       <r>   -35.0974     0.0000     0.0000 </r>
       <r>   -34.4938     0.0000     0.0000 </r>
       <r>   -33.8903     0.0000     0.0000 </r>
       <r>   -33.2867     0.0000     0.0000 </r>
       <r>   -32.6832     0.0000     0.0000 </r>
       <r>   -32.0797     0.0000     0.0000 </r>
       <r>   -31.4761     0.0000     0.0000 </r>
       <r>   -30.8726     0.0000     0.0000 </r>
       <r>   -30.2690     0.0000     0.0000 </r>
       <r>   -29.6655     0.0000     0.0000 </r>
       <r>   -29.0620     0.0000     0.0000 </r>
       <r>   -28.4584     0.0000     0.0000 </r>
       <r>   -27.8549     0.0000     0.0000 </r>
       <r>   -27.2513     0.0000     0.0000 </r>
       <r>   -26.6478     0.0000     0.0000 </r>
       <r>   -26.0442     0.0000     0.0000 </r>
       <r>   -25.4407     0.0000     0.0000 </r>
       <r>   -24.8372     0.0000     0.0000 </r>
       <r>   -24.2336     0.0000     0.0000 </r>
       <r>   -23.6301     0.0000     0.0000 </r>
       <r>   -23.0265     0.0000     0.0000 </r>
       <r>   -22.4230     0.0000     0.0000 </r>
       <r>   -21.8194     0.0000     0.0000 </r>
       <r>   -21.2159     0.0000     0.0000 </r>
       <r>   -20.6124     0.0000     0.0000 </r>
       <r>   -20.0088     0.0000     0.0000 </r>
       <r>   -19.4053     0.0000     0.0000 </r>
       <r>   -18.8017     0.0000     0.0000 </r>
       <r>   -18.1982     0.0000     0.0000 </r>
       <r>   -17.5947     0.0000     0.0000 </r>
       <r>   -16.9911     0.0000     0.0000 </r>
       <r>   -16.3876     0.0000     0.0000 </r>
       <r>   -15.7840     0.0000     0.0000 </r>
       <r>   -15.1805     0.0000     0.0000 </r>
       <r>   -14.5769     0.0000     0.0000 </r>
       <r>   -13.9734     0.0000     0.0000 </r>
       <r>   -13.3699     0.0000     0.0000 </r>
       <r>   -12.7663     0.0000     0.0000 </r>
       <r>   -12.1628     0.0000     0.0000 </r>
       <r>   -11.5592     0.0000     0.0000 </r>
       <r>   -10.9557     0.0000     0.0000 </r>
       <r>   -10.3522     0.0000     0.0000 </r>
       <r>    -9.7486     0.0000     0.0000 </r>
       <r>    -9.1451     0.0000     0.0000 </r>
       <r>    -8.5415     0.0000     0.0000 </r>
       <r>    -7.9380     0.0000     0.0000 </r>
       <r>    -7.3344     0.0000     0.0000 </r>
       <r>    -6.7309     0.0000     0.0000 </r>
       <r>    -6.1274     0.0000     0.0000 </r>
       <r>    -5.5238     0.0000     0.0000 </r>
       <r>    -4.9203     0.0000     0.0000 </r>
       <r>    -4.3167     0.0000     0.0000 </r>
       <r>    -3.7132     0.0000     0.0000 </r>
       <r>    -3.1097     0.0000     0.0000 </r>
       <r>    -2.5061     0.0000     0.0000 </r>
       <r>    -1.9026     0.0000     0.0000 </r>
       <r>    -1.2990     0.0000     0.0000 </r>
       <r>    -0.6955     0.0000     0.0000 </r>
       <r>    -0.0919     0.0000     0.0000 </r>
       <r>     0.5116     0.0000     0.0000 </r>
       <r>     1.1151     0.0000     0.0000 </r>
       <r>     1.7187     0.0000     0.0000 </r>
       <r>     2.3222     0.0000     0.0000 </r>
       <r>     2.9258     0.0000     0.0000 </r>
       <r>     3.5293     0.0000     0.0000 </r>
       <r>     4.1328     0.0000     0.0000 </r>
       <r>     4.7364     0.0000     0.0000 </r>
       <r>     5.3399     0.0000     0.0000 </r>
       <r>     5.9435     0.0000     0.0000 </r>
       <r>     6.5470     0.0000     0.0000 </r>
       <r>     7.1506     0.0000     0.0000 </r>
       <r>     7.7541     0.0000     0.0000 </r>
       <r>     8.3576     0.0000     0.0000 </r>
       <r>     8.9612     0.0000     0.0000 </r>
       <r>     9.5647     0.0000     0.0000 </r>
       <r>    10.1683     0.0000     0.0000 </r>
       <r>    10.7718     0.0000     0.0000 </r>
       <r>    11.3753     0.0000     0.0000 </r>
       <r>    11.9789     0.0000     0.0000 </r>
       <r>    12.5824     0.0000     0.0000 </r>
       <r>    13.1860     0.0000     0.0000 </r>
       <r>    13.7895     0.0000     0.0000 </r>
       <r>    14.3931     0.0000     0.0000 </r>
       <r>    14.9966     0.0000     0.0000 </r>
       <r>    15.6001     0.0000     0.0000 </r>
       <r>    16.2037     0.0000     0.0000 </r>
       <r>    16.8072     0.0000     0.0000 </r>
       <r>    17.4108     0.0000     0.0000 </r>
       <r>    18.0143     0.0000     0.0000 </r>
       <r>    18.6178     0.0000     0.0000 </r>
       <r>    19.2214     0.0000     0.0000 </r>
       <r>    19.8249     0.0000     0.0000 </r>
       <r>    20.4285     0.0000     0.0000 </r>
       <r>    21.0320     0.0000     0.0000 </r>
       <r>    21.6356     0.0000     0.0000 </r>
       <r>    22.2391     0.0000     0.0000 </r>
       <r>    22.8426     0.0000     0.0000 </r>
       <r>    23.4462     0.0000     0.0000 </r>
       <r>    24.0497     0.0000     0.0000 </r>
       <r>    24.6533     0.0000     0.0000 </r>
       <r>    25.2568     0.0000     0.0000 </r>
       <r>    25.8603     0.0000     0.0000 </r>
       <r>    26.4639     0.0000     0.0000 </r>
       <r>    27.0674     0.0000     0.0000 </r>
       <r>    27.6710     0.0000     0.0000 </r>
       <r>    28.2745     0.0000     0.0000 </r>
       <r>    28.8781     0.0000     0.0000 </r>
       <r>    29.4816     0.0000     0.0000 </r>
       <r>    30.0851     0.0000     0.0000 </r>
       <r>    30.6887     0.0000     0.0000 </r>
       <r>    31.2922     0.0000     0.0000 </r>
       <r>    31.8958     0.0000     0.0000 </r>
       <r>    32.4993     0.0000     0.0000 </r>
       <r>    33.1028     0.0000     0.0000 </r>
       <r>    33.7064     0.0000     0.0000 </r>
       <r>    34.3099     0.0000     0.0000 </r>
       <r>    34.9135     0.0000     0.0000 </r>
       <r>    35.5170     0.0000     0.0000 </r>
       <r>    36.1206     0.0000     0.0000 </r>
       <r>    36.7241     0.0000     0.0000 </r>
       <r>    37.3276     0.0000     0.0000 </r>
       <r>    37.9312     0.0000     0.0000 </r>
       <r>    38.5347     0.0000     0.0000 </r>
       <r>    39.1383     0.0000     0.0000 </r>
       <r>    39.7418     0.0000     0.0000 </r>
       <r>    40.3454     0.0000     0.0000 </r>
       <r>    40.9489     0.0000     0.0000 </r>
       <r>    41.5524     0.0000     0.0000 </r>
       <r>    42.1560     0.0000     0.0000 </r>
       <r>    42.7595     0.0000     0.0000 </r>
       <r>    43.3631     0.0000     0.0000 </r>
       <r>    43.9666     0.0000     0.0000 </r>
       <r>    44.5701     0.0000     0.0000 </r>
       <r>    45.1737     0.0000     0.0000 </r>
       <r>    45.7772     0.0000     0.0000 </r>
       <r>    46.3808     0.0000     0.0000 </r>
       <r>    46.9843     0.0000     0.0000 </r>
       <r>    47.5879     0.0000     0.0000 </r>
       <r>    48.1914     0.0000     0.0000 </r>
       <r>    48.7949     0.0000     0.0000 </r>
       <r>    49.3985     0.0000     0.0000 </r>
       <r>    50.0020     0.0000     0.0000 </r>
       <r>    50.6056     0.0000     0.0000 </r>
       <r>    51.2091     0.0000     0.0000 </r>
       <r>    51.8126     0.0000     0.0000 </r>
       <r>    52.4162     0.0000     0.0000 </r>
       <r>    53.0197     0.0000     0.0000 </r>
       <r>    53.6233     0.0000     0.0000 </r>
       <r>    54.2268     0.0000     0.0000 </r>
       <r>    54.8304     0.0000     0.0000 </r>
       <r>    55.4339     0.0000     0.0000 </r>
       <r>    56.0374     0.0000     0.0000 </r>
       <r>    56.6410     0.0000     0.0000 </r>
       <r>    57.2445     0.0000     0.0000 </r>
       <r>    57.8481     0.0000     0.0000 </r>
       <r>    58.4516     0.0000     0.0000 </r>
       <r>    59.0551     0.0000     0.0000 </r>
       <r>    59.6587     0.0000     0.0000 </r>
       <r>    60.2622     0.0000     0.0000 </r>
       <r>    60.8658     0.0000     0.0000 </r>
       <r>    61.4693     0.0000     0.0000 </r>
       <r>    62.0729     0.0000     0.0000 </r>
       <r>    62.6764     0.0000     0.0000 </r>
       <r>    63.2799     0.0000     0.0000 </r>
       <r>    63.8835     0.0000     0.0000 </r>
       <r>    64.4870     0.0000     0.0000 </r>
       <r>    65.0906     0.0000     0.0000 </r>
       <r>    65.6941     0.0000     0.0000 </r>
       <r>    66.2976     0.0000     0.0000 </r>
       <r>    66.9012     0.0000     0.0000 </r>
       <r>    67.5047     0.0000     0.0000 </r>
       <r>    68.1083     0.0000     0.0000 </r>
       <r>    68.7118     0.0000     0.0000 </r>
       <r>    69.3154     0.0000     0.0000 </r>
       <r>    69.9189     0.0000     0.0000 </r>
       <r>    70.5224     0.0000     0.0000 </r>
       <r>    71.1260     0.0000     0.0000 </r>
       <r>    71.7295     0.0000     0.0000 </r>
       <r>    72.3331     0.0000     0.0000 </r>
       <r>    72.9366     0.0000     0.0000 </r>
       <r>    73.5401     0.0000     0.0000 </r>
       <r>    74.1437     0.0000     0.0000 </r>
       <r>    74.7472     0.0000     0.0000 </r>
       <r>    75.3508     0.0000     0.0000 </r>
       <r>    75.9543     0.0000     0.0000 </r>
       <r>    76.5579     0.0000     0.0000 </r>
       <r>    77.1614     0.0000     0.0000 </r>
       <r>    77.7649     0.0000     0.0000 </r>
       <r>    78.3685     0.0000     0.0000 </r>
       <r>    78.9720     0.0000     0.0000 </r>
       <r>    79.5756     0.0000     0.0000 </r>
       <r>    80.1791     0.0000     0.0000 </r>
       <r>    80.7826     0.0000     0.0000 </r>
       <r>    81.3862     0.0000     0.0000 </r>
       <r>    81.9897     0.0000     0.0000 </r>
       <r>    82.5933     0.0000     0.0000 </r>
       <r>    83.1968     0.0000     0.0000 </r>
       <r>    83.8004     0.0000     0.0000 </r>
       <r>    84.4039     0.0000     0.0000 </r>
       <r>    85.0074     0.0000     0.0000 </r>
       <r>    85.6110     0.0000     0.0000 </r>
       <r>    86.2145     0.0000     0.0000 </r>
       <r>    86.8181     0.0000     0.0000 </r>
       <r>    87.4216     0.0000     0.0000 </r>
       <r>    88.0251     0.0000     0.0000 </r>
       <r>    88.6287     0.0000     0.0000 </r>
       <r>    89.2322     0.0000     0.0000 </r>
       <r>    89.8358     0.0000     0.0000 </r>
       <r>    90.4393     0.0000     0.0000 </r>
       <r>    91.0429     0.0000     0.0000 </r>
       <r>    91.6464     0.0000     0.0000 </r>
       <r>    92.2499     0.0000     0.0000 </r>
       <r>    92.8535     0.0000     0.0000 </r>
       <r>    93.4570     0.0000     0.0000 </r>
       <r>    94.0606     0.0000     0.0000 </r>
       <r>    94.6641     0.0000     0.0000 </r>
       <r>    95.2676     0.0000     0.0000 </r>
       <r>    95.8712     0.0000     0.0000 </r>
       <r>    96.4747     0.0000     0.0000 </r>
       <r>    97.0783     0.0000     0.0000 </r>
       <r>    97.6818     0.0000     0.0000 </r>
       <r>    98.2854     0.0000     0.0000 </r>
       <r>    98.8889     0.0000     0.0000 </r>
       <r>    99.4924     0.0000     0.0000 </r>
       <r>   100.0960     0.0000     0.0000 </r>
       <r>   100.6995     0.0000     0.0000 </r>
       <r>   101.3031     0.0000     0.0000 </r>
       <r>   101.9066     0.0000     0.0000 </r>
       <r>   102.5102     0.0000     0.0000 </r>
       <r>   103.1137     0.0000     0.0000 </r>
       <r>   103.7172     0.0000     0.0000 </r>
       <r>   104.3208     0.0000     0.0000 </r>
       <r>   104.9243     0.0000     0.0000 </r>
       <r>   105.5279     0.0000     0.0000 </r>
       <r>   106.1314     0.0000     0.0000 </r>
       <r>   106.7349     0.0000     0.0000 </r>
       <r>   107.3385     0.0000     0.0000 </r>
       <r>   107.9420     0.0000     0.0000 </r>
       <r>   108.5456     0.0000     0.0000 </r>
       <r>   109.1491     0.0000     0.0000 </r>
       <r>   109.7527     0.0000     0.0000 </r>
       <r>   110.3562     0.0000     0.0000 </r>
       <r>   110.9597     0.0000     0.0000 </r>
       <r>   111.5633     0.0000     0.0000 </r>
       <r>   112.1668     0.0000     0.0000 </r>
       <r>   112.7704     0.0000     0.0000 </r>
       <r>   113.3739     0.0000     0.0000 </r>
       <r>   113.9774     0.0000     0.0000 </r>
       <r>   114.5810     0.0000     0.0000 </r>
       <r>   115.1845     0.0000     0.0000 </r>
       <r>   115.7881     0.0000     0.0000 </r>
       <r>   116.3916     0.0000     0.0000 </r>
       <r>   116.9952     0.0000     0.0000 </r>
       <r>   117.5987     0.0000     0.0000 </r>
       <r>   118.2022     0.0000     0.0000 </r>
       <r>   118.8058     0.0000     0.0000 </r>
       <r>   119.4093     0.0000     0.0000 </r>
       <r>   120.0129     0.0000     0.0000 </r>
       <r>   120.6164     0.0000     0.0000 </r>
       <r>   121.2199     0.0000     0.0000 </r>
       <r>   121.8235     0.0000     0.0000 </r>
       <r>   122.4270     0.0000     0.0000 </r>
       <r>   123.0306     0.0000     0.0000 </r>
       <r>   123.6341     0.0000     0.0000 </r>
       <r>   124.2377     0.0000     0.0000 </r>
       <r>   124.8412     0.0000     0.0000 </r>
       <r>   125.4447     0.0000     0.0000 </r>
       <r>   126.0483     0.0000     0.0000 </r>
       <r>   126.6518     0.0000     0.0000 </r>
       <r>   127.2554     0.0000     0.0000 </r>
       <r>   127.8589     0.0000     0.0000 </r>
       <r>   128.4624     0.0000     0.0000 </r>
       <r>   129.0660     0.0000     0.0000 </r>
      </set>
     </set>
    </array>
   </total>
  </dos>
 </calculation>
 <structure name="finalpos" >
  <crystal>
   <varray name="basis" >
    <v>       4.41457561       0.00000000       0.00000000 </v>
    <v>       2.20728780       3.82313462      -0.00000000 </v>
    <v>       2.20728780       1.27437821       3.60448589 </v>
   </varray>
   <i name="volume">     60.83477135 </i>
   <varray name="rec_basis" >
    <v>       0.22652234      -0.13078273      -0.09247736 </v>
    <v>       0.00000000       0.26156547      -0.09247736 </v>
    <v>      -0.00000000       0.00000000       0.27743208 </v>
   </varray>
  </crystal>
  <varray name="positions" >
   <v>       0.00000000       0.00000000       0.00000000 </v>
  </varray>
  <varray name="velocities" >
   <v>       0.00000000       0.00000000       0.00000000 </v>
  </varray>
 </structure>
</modeling>
