   1   1   0   0
  0.5764366E+02  0.4335996E-09  0.4335996E-09  0.4335996E-09  0.1000000E-15
  1.000000000000000E-004
  CAR 
 Og_FCC                                  
     58.39806784    -22.33778656  301     -5.51781690      1.00000000
    -22.338  0.0000E+00  0.0000E+00
    -22.069  0.0000E+00  0.0000E+00
    -21.800  0.0000E+00  0.0000E+00
    -21.530  0.0000E+00  0.0000E+00
    -21.261  0.0000E+00  0.0000E+00
    -20.992  0.0000E+00  0.0000E+00
    -20.723  0.0000E+00  0.0000E+00
    -20.454  0.0000E+00  0.0000E+00
    -20.185  0.0000E+00  0.0000E+00
    -19.916  0.0000E+00  0.0000E+00
    -19.647  0.0000E+00  0.0000E+00
    -19.377  0.0000E+00  0.0000E+00
    -19.108  0.0000E+00  0.0000E+00
    -18.839  0.0000E+00  0.0000E+00
    -18.570  0.0000E+00  0.8746E-01
    -18.301  0.5039E+00  0.1751E+01
    -18.032  0.0000E+00  0.2000E+01
    -17.763  0.0000E+00  0.2000E+01
    -17.494  0.0000E+00  0.2000E+01
    -17.225  0.0000E+00  0.2000E+01
    -16.955  0.0000E+00  0.2000E+01
    -16.686  0.0000E+00  0.2000E+01
    -16.417  0.0000E+00  0.2000E+01
    -16.148  0.0000E+00  0.2000E+01
    -15.879  0.0000E+00  0.2000E+01
    -15.610  0.0000E+00  0.2000E+01
    -15.341  0.0000E+00  0.2000E+01
    -15.072  0.0000E+00  0.2000E+01
    -14.802  0.0000E+00  0.2000E+01
    -14.533  0.0000E+00  0.2000E+01
    -14.264  0.0000E+00  0.2000E+01
    -13.995  0.0000E+00  0.2000E+01
    -13.726  0.0000E+00  0.2000E+01
    -13.457  0.0000E+00  0.2000E+01
    -13.188  0.0000E+00  0.2000E+01
    -12.919  0.0000E+00  0.2000E+01
    -12.649  0.0000E+00  0.2000E+01
    -12.380  0.0000E+00  0.2000E+01
    -12.111  0.0000E+00  0.2000E+01
    -11.842  0.0000E+00  0.2000E+01
    -11.573  0.0000E+00  0.2000E+01
    -11.304  0.0000E+00  0.2000E+01
    -11.035  0.0000E+00  0.2000E+01
    -10.766  0.0000E+00  0.2000E+01
    -10.497  0.0000E+00  0.2000E+01
    -10.227  0.0000E+00  0.2000E+01
     -9.958  0.0000E+00  0.2000E+01
     -9.689  0.0000E+00  0.2000E+01
     -9.420  0.0000E+00  0.2000E+01
     -9.151  0.0000E+00  0.2000E+01
     -8.882  0.0000E+00  0.2000E+01
     -8.613  0.0000E+00  0.2000E+01
     -8.344  0.5200E+00  0.2187E+01
     -8.074  0.0000E+00  0.3341E+01
     -7.805  0.0000E+00  0.3703E+01
     -7.536  0.0000E+00  0.3843E+01
     -7.267  0.0000E+00  0.3913E+01
     -6.998  0.1300E+00  0.4875E+01
     -6.729  0.0000E+00  0.5434E+01
     -6.460  0.2372E-10  0.6006E+01
     -6.191  0.0000E+00  0.6927E+01
     -5.921  0.0000E+00  0.7743E+01
     -5.652  0.0000E+00  0.7988E+01
     -5.383  0.0000E+00  0.8000E+01
     -5.114  0.0000E+00  0.8000E+01
     -4.845  0.0000E+00  0.8000E+01
     -4.576  0.0000E+00  0.8000E+01
     -4.307  0.0000E+00  0.8000E+01
     -4.038  0.0000E+00  0.8000E+01
     -3.769  0.0000E+00  0.8000E+01
     -3.499  0.0000E+00  0.8000E+01
     -3.230  0.0000E+00  0.8000E+01
     -2.961  0.0000E+00  0.8000E+01
     -2.692  0.0000E+00  0.8000E+01
     -2.423  0.0000E+00  0.8000E+01
     -2.154  0.0000E+00  0.8000E+01
     -1.885  0.0000E+00  0.8000E+01
     -1.616  0.0000E+00  0.8000E+01
     -1.346  0.0000E+00  0.8000E+01
     -1.077  0.0000E+00  0.8000E+01
     -0.808  0.0000E+00  0.8000E+01
     -0.539  0.0000E+00  0.8000E+01
     -0.270  0.0000E+00  0.8000E+01
     -0.001  0.0000E+00  0.8000E+01
      0.268  0.0000E+00  0.8000E+01
      0.537  0.0000E+00  0.8000E+01
      0.806  0.0000E+00  0.8000E+01
      1.076  0.0000E+00  0.8000E+01
      1.345  0.0000E+00  0.8000E+01
      1.614  0.0000E+00  0.8000E+01
      1.883  0.0000E+00  0.8000E+01
      2.152  0.0000E+00  0.8000E+01
      2.421  0.0000E+00  0.8000E+01
      2.690  0.0000E+00  0.8000E+01
      2.959  0.0000E+00  0.8000E+01
      3.229  0.0000E+00  0.8000E+01
      3.498  0.0000E+00  0.8000E+01
      3.767  0.0000E+00  0.8006E+01
      4.036  0.0000E+00  0.8006E+01
      4.305  0.0000E+00  0.8052E+01
      4.574  0.0000E+00  0.8087E+01
      4.843  0.0000E+00  0.8122E+01
      5.112  0.0000E+00  0.8262E+01
      5.382  0.0000E+00  0.8496E+01
      5.651  0.0000E+00  0.8810E+01
      5.920  0.0000E+00  0.9405E+01
      6.189  0.0000E+00  0.9755E+01
      6.458  0.0000E+00  0.1024E+02
      6.727  0.0000E+00  0.1042E+02
      6.996  0.9711E-05  0.1070E+02
      7.265  0.1357E-14  0.1133E+02
      7.534  0.0000E+00  0.1161E+02
      7.804  0.0000E+00  0.1199E+02
      8.073  0.0000E+00  0.1268E+02
      8.342  0.0000E+00  0.1310E+02
      8.611  0.5200E+00  0.1363E+02
      8.880  0.0000E+00  0.1457E+02
      9.149  0.2600E+00  0.1515E+02
      9.418  0.5074E+00  0.1553E+02
      9.687  0.0000E+00  0.1613E+02
      9.957  0.4904E+00  0.1699E+02
     10.226  0.0000E+00  0.1749E+02
     10.495  0.1300E+00  0.1777E+02
     10.764  0.0000E+00  0.1882E+02
     11.033  0.0000E+00  0.1924E+02
     11.302  0.5200E+00  0.2043E+02
     11.571  0.0000E+00  0.2061E+02
     11.840  0.0000E+00  0.2089E+02
     12.110  0.0000E+00  0.2091E+02
     12.379  0.0000E+00  0.2122E+02
     12.648  0.2194E+00  0.2167E+02
     12.917  0.0000E+00  0.2217E+02
     13.186  0.0000E+00  0.2352E+02
     13.455  0.0000E+00  0.2406E+02
     13.724  0.0000E+00  0.2472E+02
     13.993  0.0000E+00  0.2518E+02
     14.262  0.0000E+00  0.2574E+02
     14.532  0.0000E+00  0.2592E+02
     14.801  0.1300E+00  0.2644E+02
     15.070  0.0000E+00  0.2658E+02
     15.339  0.0000E+00  0.2710E+02
     15.608  0.0000E+00  0.2815E+02
     15.877  0.8042E-01  0.2834E+02
     16.146  0.0000E+00  0.2937E+02
     16.415  0.1300E+00  0.3036E+02
     16.685  0.1300E+00  0.3097E+02
     16.954  0.5200E+00  0.3167E+02
     17.223  0.3699E+00  0.3257E+02
     17.492  0.0000E+00  0.3362E+02
     17.761  0.0000E+00  0.3445E+02
     18.030  0.0000E+00  0.3501E+02
     18.299  0.1300E+00  0.3532E+02
     18.568  0.0000E+00  0.3553E+02
     18.837  0.0000E+00  0.3634E+02
     19.107  0.0000E+00  0.3648E+02
     19.376  0.0000E+00  0.3750E+02
     19.645  0.0000E+00  0.3846E+02
     19.914  0.0000E+00  0.3889E+02
     20.183  0.0000E+00  0.3973E+02
     20.452  0.0000E+00  0.4037E+02
     20.721  0.0000E+00  0.4086E+02
     20.990  0.0000E+00  0.4191E+02
     21.260  0.0000E+00  0.4293E+02
     21.529  0.0000E+00  0.4328E+02
     21.798  0.4772E+00  0.4394E+02
     22.067  0.0000E+00  0.4485E+02
     22.336  0.0000E+00  0.4599E+02
     22.605  0.0000E+00  0.4659E+02
     22.874  0.0000E+00  0.4712E+02
     23.143  0.0000E+00  0.4760E+02
     23.413  0.0000E+00  0.4786E+02
     23.682  0.0000E+00  0.4863E+02
     23.951  0.2644E+00  0.4928E+02
     24.220  0.0000E+00  0.4957E+02
     24.489  0.0000E+00  0.5017E+02
     24.758  0.0000E+00  0.5119E+02
     25.027  0.0000E+00  0.5178E+02
     25.296  0.0000E+00  0.5229E+02
     25.565  0.0000E+00  0.5249E+02
     25.835  0.0000E+00  0.5333E+02
     26.104  0.5200E+00  0.5392E+02
     26.373  0.2128E+00  0.5504E+02
     26.642  0.5200E+00  0.5612E+02
     26.911  0.1040E+01  0.5761E+02
     27.180  0.0000E+00  0.5832E+02
     27.449  0.0000E+00  0.5886E+02
     27.718  0.0000E+00  0.5932E+02
     27.988  0.0000E+00  0.5937E+02
     28.257  0.0000E+00  0.5965E+02
     28.526  0.0000E+00  0.6061E+02
     28.795  0.0000E+00  0.6141E+02
     29.064  0.0000E+00  0.6156E+02
     29.333  0.0000E+00  0.6243E+02
     29.602  0.2596E+00  0.6280E+02
     29.871  0.5200E+00  0.6340E+02
     30.141  0.0000E+00  0.6434E+02
     30.410  0.0000E+00  0.6508E+02
     30.679  0.0000E+00  0.6597E+02
     30.948  0.1945E-03  0.6661E+02
     31.217  0.0000E+00  0.6706E+02
     31.486  0.0000E+00  0.6755E+02
     31.755  0.0000E+00  0.6879E+02
     32.024  0.0000E+00  0.7000E+02
     32.293  0.0000E+00  0.7024E+02
     32.563  0.0000E+00  0.7099E+02
     32.832  0.1300E+00  0.7140E+02
     33.101  0.2067E+00  0.7238E+02
     33.370  0.3033E+00  0.7268E+02
     33.639  0.6500E+00  0.7392E+02
     33.908  0.0000E+00  0.7487E+02
     34.177  0.0000E+00  0.7501E+02
     34.446  0.0000E+00  0.7566E+02
     34.716  0.0000E+00  0.7679E+02
     34.985  0.0000E+00  0.7736E+02
     35.254  0.0000E+00  0.7785E+02
     35.523  0.0000E+00  0.7830E+02
     35.792  0.0000E+00  0.7875E+02
     36.061  0.0000E+00  0.7927E+02
     36.330  0.1300E+00  0.7965E+02
     36.599  0.0000E+00  0.8010E+02
     36.869  0.7725E-05  0.8075E+02
     37.138  0.1203E-16  0.8192E+02
     37.407  0.0000E+00  0.8278E+02
     37.676  0.0000E+00  0.8387E+02
     37.945  0.5200E+00  0.8473E+02
     38.214  0.5191E+00  0.8545E+02
     38.483  0.0000E+00  0.8621E+02
     38.752  0.0000E+00  0.8734E+02
     39.021  0.0000E+00  0.8790E+02
     39.291  0.0000E+00  0.8878E+02
     39.560  0.0000E+00  0.8958E+02
     39.829  0.0000E+00  0.9062E+02
     40.098  0.0000E+00  0.9086E+02
     40.367  0.3776E-09  0.9121E+02
     40.636  0.0000E+00  0.9210E+02
     40.905  0.0000E+00  0.9257E+02
     41.174  0.0000E+00  0.9292E+02
     41.444  0.2354E+00  0.9410E+02
     41.713  0.0000E+00  0.9486E+02
     41.982  0.0000E+00  0.9507E+02
     42.251  0.0000E+00  0.9669E+02
     42.520  0.0000E+00  0.9765E+02
     42.789  0.5200E+00  0.9830E+02
     43.058  0.0000E+00  0.9905E+02
     43.327  0.0000E+00  0.9974E+02
     43.596  0.0000E+00  0.1003E+03
     43.866  0.0000E+00  0.1012E+03
     44.135  0.0000E+00  0.1021E+03
     44.404  0.0000E+00  0.1028E+03
     44.673  0.3459E-07  0.1033E+03
     44.942  0.2522E-01  0.1042E+03
     45.211  0.0000E+00  0.1048E+03
     45.480  0.0000E+00  0.1057E+03
     45.749  0.5473E-02  0.1063E+03
     46.019  0.0000E+00  0.1072E+03
     46.288  0.0000E+00  0.1075E+03
     46.557  0.0000E+00  0.1080E+03
     46.826  0.5200E+00  0.1088E+03
     47.095  0.1932E-02  0.1094E+03
     47.364  0.0000E+00  0.1097E+03
     47.633  0.0000E+00  0.1109E+03
     47.902  0.0000E+00  0.1114E+03
     48.172  0.2361E+00  0.1124E+03
     48.441  0.0000E+00  0.1134E+03
     48.710  0.0000E+00  0.1139E+03
     48.979  0.5200E+00  0.1157E+03
     49.248  0.0000E+00  0.1165E+03
     49.517  0.0000E+00  0.1167E+03
     49.786  0.0000E+00  0.1173E+03
     50.055  0.5773E-16  0.1183E+03
     50.324  0.0000E+00  0.1194E+03
     50.594  0.0000E+00  0.1202E+03
     50.863  0.0000E+00  0.1211E+03
     51.132  0.0000E+00  0.1217E+03
     51.401  0.0000E+00  0.1223E+03
     51.670  0.0000E+00  0.1231E+03
     51.939  0.0000E+00  0.1238E+03
     52.208  0.5200E+00  0.1253E+03
     52.477  0.0000E+00  0.1257E+03
     52.747  0.0000E+00  0.1261E+03
     53.016  0.0000E+00  0.1266E+03
     53.285  0.4930E+00  0.1270E+03
     53.554  0.0000E+00  0.1272E+03
     53.823  0.0000E+00  0.1276E+03
     54.092  0.0000E+00  0.1278E+03
     54.361  0.4546E-07  0.1278E+03
     54.630  0.0000E+00  0.1280E+03
     54.900  0.0000E+00  0.1280E+03
     55.169  0.0000E+00  0.1280E+03
     55.438  0.0000E+00  0.1280E+03
     55.707  0.0000E+00  0.1280E+03
     55.976  0.0000E+00  0.1280E+03
     56.245  0.0000E+00  0.1280E+03
     56.514  0.0000E+00  0.1280E+03
     56.783  0.0000E+00  0.1280E+03
     57.052  0.0000E+00  0.1280E+03
     57.322  0.0000E+00  0.1280E+03
     57.591  0.0000E+00  0.1280E+03
     57.860  0.0000E+00  0.1280E+03
     58.129  0.0000E+00  0.1280E+03
     58.398  0.0000E+00  0.1280E+03
