   1   1   0   0
  0.6836723E+02  0.4589736E-09  0.4589736E-09  0.4589736E-09  0.1000000E-15
  1.000000000000000E-004
  CAR 
 Og_FCC                                  
     15.50931629    -33.90877969  301      2.32778999      1.00000000
    -33.909  0.0000E+00  0.0000E+00
    -33.744  0.0000E+00  0.0000E+00
    -33.579  0.0000E+00  0.0000E+00
    -33.415  0.0000E+00  0.0000E+00
    -33.250  0.0000E+00  0.0000E+00
    -33.085  0.0000E+00  0.0000E+00
    -32.920  0.0000E+00  0.0000E+00
    -32.756  0.0000E+00  0.0000E+00
    -32.591 -0.1991E-35 -0.3280E-36
    -32.426 -0.2148E-23 -0.3539E-24
    -32.262 -0.9716E-14 -0.1600E-14
    -32.097 -0.1694E-06 -0.2791E-07
    -31.932 -0.1078E-01 -0.1776E-02
    -31.767 -0.7189E+00 -0.1202E+00
    -31.603  0.2297E+02  0.3663E+01
    -31.438  0.2130E+01  0.4014E+01
    -31.273 -0.8362E-01  0.4000E+01
    -31.108 -0.6935E-05  0.4000E+01
    -30.944 -0.1871E-11  0.4000E+01
    -30.779  0.0000E+00  0.4000E+01
    -30.614  0.0000E+00  0.4000E+01
    -30.450  0.0000E+00  0.4000E+01
    -30.285  0.0000E+00  0.4000E+01
    -30.120  0.0000E+00  0.4000E+01
    -29.955  0.0000E+00  0.4000E+01
    -29.791  0.0000E+00  0.4000E+01
    -29.626  0.0000E+00  0.4000E+01
    -29.461  0.0000E+00  0.4000E+01
    -29.296  0.0000E+00  0.4000E+01
    -29.132  0.0000E+00  0.4000E+01
    -28.967  0.0000E+00  0.4000E+01
    -28.802  0.0000E+00  0.4000E+01
    -28.638  0.0000E+00  0.4000E+01
    -28.473  0.0000E+00  0.4000E+01
    -28.308  0.0000E+00  0.4000E+01
    -28.143  0.0000E+00  0.4000E+01
    -27.979  0.0000E+00  0.4000E+01
    -27.814  0.0000E+00  0.4000E+01
    -27.649  0.0000E+00  0.4000E+01
    -27.484  0.0000E+00  0.4000E+01
    -27.320  0.0000E+00  0.4000E+01
    -27.155  0.0000E+00  0.4000E+01
    -26.990  0.0000E+00  0.4000E+01
    -26.826  0.0000E+00  0.4000E+01
    -26.661  0.0000E+00  0.4000E+01
    -26.496  0.0000E+00  0.4000E+01
    -26.331  0.0000E+00  0.4000E+01
    -26.167  0.0000E+00  0.4000E+01
    -26.002  0.0000E+00  0.4000E+01
    -25.837 -0.1156E-30  0.4000E+01
    -25.672 -0.1745E-19  0.4000E+01
    -25.508 -0.1061E-10  0.4000E+01
    -25.343 -0.2575E-04  0.4000E+01
    -25.178 -0.1973E+00  0.3968E+01
    -25.014  0.5588E+01  0.4888E+01
    -24.849  0.3231E+02  0.1021E+02
    -24.684 -0.1268E+01  0.1000E+02
    -24.519 -0.8720E-02  0.1000E+02
    -24.355 -0.8987E-07  0.1000E+02
    -24.190 -0.2027E-14  0.1000E+02
    -24.025  0.0000E+00  0.1000E+02
    -23.860  0.0000E+00  0.1000E+02
    -23.696  0.0000E+00  0.1000E+02
    -23.531  0.0000E+00  0.1000E+02
    -23.366  0.0000E+00  0.1000E+02
    -23.202  0.0000E+00  0.1000E+02
    -23.037  0.0000E+00  0.1000E+02
    -22.872  0.0000E+00  0.1000E+02
    -22.707  0.0000E+00  0.1000E+02
    -22.543  0.0000E+00  0.1000E+02
    -22.378  0.0000E+00  0.1000E+02
    -22.213 -0.4048E-34  0.1000E+02
    -22.048 -0.1304E-22  0.1000E+02
    -21.884 -0.1905E-13  0.1000E+02
    -21.719 -0.1375E-06  0.1000E+02
    -21.554 -0.4989E-02  0.9999E+01
    -21.390 -0.3325E+00  0.9944E+01
    -21.225  0.1077E+02  0.1172E+02
    -21.060  0.1771E+01  0.1201E+02
    -20.895 -0.6486E-01  0.1200E+02
    -20.731 -0.1018E-04  0.1200E+02
    -20.566 -0.5382E-11  0.1200E+02
    -20.401  0.0000E+00  0.1200E+02
    -20.236  0.0000E+00  0.1200E+02
    -20.072  0.0000E+00  0.1200E+02
    -19.907  0.0000E+00  0.1200E+02
    -19.742  0.0000E+00  0.1200E+02
    -19.578  0.0000E+00  0.1200E+02
    -19.413  0.0000E+00  0.1200E+02
    -19.248  0.0000E+00  0.1200E+02
    -19.083  0.0000E+00  0.1200E+02
    -18.919  0.0000E+00  0.1200E+02
    -18.754  0.0000E+00  0.1200E+02
    -18.589  0.0000E+00  0.1200E+02
    -18.424  0.0000E+00  0.1200E+02
    -18.260  0.0000E+00  0.1200E+02
    -18.095  0.0000E+00  0.1200E+02
    -17.930  0.0000E+00  0.1200E+02
    -17.766  0.0000E+00  0.1200E+02
    -17.601  0.0000E+00  0.1200E+02
    -17.436  0.0000E+00  0.1200E+02
    -17.271  0.0000E+00  0.1200E+02
    -17.107  0.0000E+00  0.1200E+02
    -16.942  0.0000E+00  0.1200E+02
    -16.777  0.0000E+00  0.1200E+02
    -16.612  0.0000E+00  0.1200E+02
    -16.448  0.0000E+00  0.1200E+02
    -16.283  0.0000E+00  0.1200E+02
    -16.118  0.0000E+00  0.1200E+02
    -15.954  0.0000E+00  0.1200E+02
    -15.789  0.0000E+00  0.1200E+02
    -15.624  0.0000E+00  0.1200E+02
    -15.459  0.0000E+00  0.1200E+02
    -15.295  0.0000E+00  0.1200E+02
    -15.130  0.0000E+00  0.1200E+02
    -14.965  0.0000E+00  0.1200E+02
    -14.800  0.0000E+00  0.1200E+02
    -14.636  0.0000E+00  0.1200E+02
    -14.471  0.0000E+00  0.1200E+02
    -14.306  0.0000E+00  0.1200E+02
    -14.142  0.0000E+00  0.1200E+02
    -13.977  0.0000E+00  0.1200E+02
    -13.812  0.0000E+00  0.1200E+02
    -13.647  0.0000E+00  0.1200E+02
    -13.483  0.0000E+00  0.1200E+02
    -13.318  0.0000E+00  0.1200E+02
    -13.153  0.0000E+00  0.1200E+02
    -12.988  0.0000E+00  0.1200E+02
    -12.824  0.0000E+00  0.1200E+02
    -12.659  0.0000E+00  0.1200E+02
    -12.494  0.0000E+00  0.1200E+02
    -12.330  0.0000E+00  0.1200E+02
    -12.165  0.0000E+00  0.1200E+02
    -12.000  0.0000E+00  0.1200E+02
    -11.835  0.0000E+00  0.1200E+02
    -11.671  0.0000E+00  0.1200E+02
    -11.506  0.0000E+00  0.1200E+02
    -11.341  0.0000E+00  0.1200E+02
    -11.176  0.0000E+00  0.1200E+02
    -11.012  0.0000E+00  0.1200E+02
    -10.847  0.0000E+00  0.1200E+02
    -10.682  0.0000E+00  0.1200E+02
    -10.518  0.0000E+00  0.1200E+02
    -10.353  0.0000E+00  0.1200E+02
    -10.188  0.0000E+00  0.1200E+02
    -10.023  0.0000E+00  0.1200E+02
     -9.859  0.0000E+00  0.1200E+02
     -9.694  0.0000E+00  0.1200E+02
     -9.529  0.0000E+00  0.1200E+02
     -9.364 -0.8215E-35  0.1200E+02
     -9.200 -0.4522E-23  0.1200E+02
     -9.035 -0.1055E-13  0.1200E+02
     -8.870 -0.1060E-06  0.1200E+02
     -8.706 -0.4225E-02  0.1200E+02
     -8.541 -0.2280E+00  0.1196E+02
     -8.376  0.8278E+01  0.1333E+02
     -8.211  0.4017E+01  0.1399E+02
     -8.047  0.8654E-01  0.1400E+02
     -7.882 -0.8585E-02  0.1400E+02
     -7.717 -0.4584E-05  0.1400E+02
     -7.552 -0.1128E-10  0.1400E+02
     -7.388  0.0000E+00  0.1400E+02
     -7.223  0.0000E+00  0.1400E+02
     -7.058  0.0000E+00  0.1400E+02
     -6.894  0.0000E+00  0.1400E+02
     -6.729  0.0000E+00  0.1400E+02
     -6.564  0.0000E+00  0.1400E+02
     -6.399  0.0000E+00  0.1400E+02
     -6.235  0.0000E+00  0.1400E+02
     -6.070  0.0000E+00  0.1400E+02
     -5.905  0.0000E+00  0.1400E+02
     -5.740  0.0000E+00  0.1400E+02
     -5.576  0.0000E+00  0.1400E+02
     -5.411  0.0000E+00  0.1400E+02
     -5.246  0.0000E+00  0.1400E+02
     -5.082  0.0000E+00  0.1400E+02
     -4.917  0.0000E+00  0.1400E+02
     -4.752  0.0000E+00  0.1400E+02
     -4.587  0.0000E+00  0.1400E+02
     -4.423  0.0000E+00  0.1400E+02
     -4.258  0.0000E+00  0.1400E+02
     -4.093  0.0000E+00  0.1400E+02
     -3.928  0.0000E+00  0.1400E+02
     -3.764  0.0000E+00  0.1400E+02
     -3.599  0.0000E+00  0.1400E+02
     -3.434  0.0000E+00  0.1400E+02
     -3.270  0.0000E+00  0.1400E+02
     -3.105  0.0000E+00  0.1400E+02
     -2.940  0.0000E+00  0.1400E+02
     -2.775  0.0000E+00  0.1400E+02
     -2.611  0.0000E+00  0.1400E+02
     -2.446  0.0000E+00  0.1400E+02
     -2.281  0.0000E+00  0.1400E+02
     -2.116  0.0000E+00  0.1400E+02
     -1.952  0.0000E+00  0.1400E+02
     -1.787  0.0000E+00  0.1400E+02
     -1.622  0.0000E+00  0.1400E+02
     -1.458  0.0000E+00  0.1400E+02
     -1.293  0.0000E+00  0.1400E+02
     -1.128  0.0000E+00  0.1400E+02
     -0.963 -0.9521E-30  0.1400E+02
     -0.799 -0.4075E-19  0.1400E+02
     -0.634 -0.7058E-11  0.1400E+02
     -0.469 -0.5094E-05  0.1400E+02
     -0.304 -0.1488E-01  0.1400E+02
     -0.140  0.1860E+00  0.1403E+02
      0.025  0.6173E+01  0.1505E+02
      0.190  0.3046E+01  0.1555E+02
      0.354  0.8364E+00  0.1568E+02
      0.519  0.8030E+00  0.1582E+02
      0.684  0.4192E+00  0.1589E+02
      0.849  0.1245E+01  0.1609E+02
      1.013  0.2633E+01  0.1652E+02
      1.178  0.1443E+01  0.1676E+02
      1.343  0.2039E+01  0.1710E+02
      1.508  0.1423E+01  0.1733E+02
      1.672  0.1235E+01  0.1754E+02
      1.837  0.1291E+01  0.1775E+02
      2.002  0.8693E+00  0.1789E+02
      2.166  0.4930E+00  0.1797E+02
      2.331  0.1636E+00  0.1800E+02
      2.496 -0.1129E-02  0.1800E+02
      2.661  0.1088E-01  0.1800E+02
      2.825  0.6276E-02  0.1800E+02
      2.990 -0.2328E-03  0.1800E+02
      3.155 -0.2403E-06  0.1800E+02
      3.320 -0.8910E-03  0.1800E+02
      3.484  0.2553E-01  0.1801E+02
      3.649  0.1106E+00  0.1803E+02
      3.814  0.9096E-01  0.1804E+02
      3.978  0.6823E-02  0.1804E+02
      4.143  0.9546E-02  0.1804E+02
      4.308  0.1887E+00  0.1807E+02
      4.473  0.1559E+00  0.1810E+02
      4.637  0.3920E+00  0.1816E+02
      4.802 -0.2184E-01  0.1816E+02
      4.967  0.3078E+00  0.1821E+02
      5.132  0.6259E+00  0.1831E+02
      5.296  0.6661E+00  0.1842E+02
      5.461  0.1251E+01  0.1863E+02
      5.626  0.8057E+00  0.1876E+02
      5.790  0.1189E+01  0.1896E+02
      5.955  0.1763E+01  0.1925E+02
      6.120  0.1486E+01  0.1949E+02
      6.285  0.1315E+01  0.1971E+02
      6.449  0.1364E+01  0.1994E+02
      6.614  0.4194E+00  0.2000E+02
      6.779  0.1196E+00  0.2002E+02
      6.944  0.3626E+00  0.2008E+02
      7.108  0.6655E+00  0.2019E+02
      7.273  0.9601E+00  0.2035E+02
      7.438  0.3726E+01  0.2097E+02
      7.602  0.1219E+01  0.2117E+02
      7.767  0.9062E+00  0.2132E+02
      7.932  0.9101E+00  0.2147E+02
      8.097  0.1298E+01  0.2168E+02
      8.261  0.2393E+01  0.2207E+02
      8.426  0.2773E+01  0.2253E+02
      8.591  0.1390E+01  0.2276E+02
      8.756  0.6985E+00  0.2287E+02
      8.920  0.2517E+01  0.2329E+02
      9.085  0.2443E+01  0.2369E+02
      9.250  0.1146E+01  0.2388E+02
      9.414  0.6027E+00  0.2398E+02
      9.579  0.1490E+01  0.2422E+02
      9.744  0.1231E+01  0.2443E+02
      9.909  0.2286E+01  0.2480E+02
     10.073  0.3476E+01  0.2538E+02
     10.238  0.9921E+00  0.2554E+02
     10.403  0.1458E+01  0.2578E+02
     10.568  0.1758E+01  0.2607E+02
     10.732  0.6295E+00  0.2617E+02
     10.897  0.7900E+00  0.2630E+02
     11.062  0.2523E+01  0.2672E+02
     11.226  0.1578E+01  0.2698E+02
     11.391  0.1342E+01  0.2720E+02
     11.556  0.1037E+01  0.2737E+02
     11.721  0.1594E+01  0.2763E+02
     11.885  0.8772E+00  0.2778E+02
     12.050  0.2148E+00  0.2781E+02
     12.215  0.2910E+00  0.2786E+02
     12.380  0.1932E+00  0.2789E+02
     12.544  0.2492E+00  0.2793E+02
     12.709  0.2021E+00  0.2797E+02
     12.874  0.1082E+00  0.2799E+02
     13.038  0.6246E-01  0.2800E+02
     13.203  0.1366E-01  0.2800E+02
     13.368  0.1531E-01  0.2800E+02
     13.533 -0.4828E-03  0.2800E+02
     13.697 -0.7704E-05  0.2800E+02
     13.862 -0.1247E-09  0.2800E+02
     14.027 -0.7396E-17  0.2800E+02
     14.192  0.0000E+00  0.2800E+02
     14.356  0.0000E+00  0.2800E+02
     14.521  0.0000E+00  0.2800E+02
     14.686  0.0000E+00  0.2800E+02
     14.850  0.0000E+00  0.2800E+02
     15.015  0.0000E+00  0.2800E+02
     15.180  0.0000E+00  0.2800E+02
     15.345  0.0000E+00  0.2800E+02
     15.509  0.0000E+00  0.2800E+02
