    1    1    1    1
  0.6836723E+02  0.4589735E-09  0.4589735E-09  0.4589735E-09  0.1000000E-15
  1.000000000000000E-004
  CAR 
 Og_FCC                                  
     18    365     28
 
  0.0000000E+00  0.0000000E+00  0.0000000E+00  0.1371742E-02
    1      -31.662503   1.000000
    2      -31.662502   1.000000
    3      -31.662502   1.000000
    4      -31.662502   1.000000
    5      -24.970080   1.000000
    6      -24.970079   1.000000
    7      -24.968326   1.000000
    8      -24.968326   1.000000
    9      -24.968326   1.000000
   10      -24.968326   1.000000
   11      -21.330770   1.000000
   12      -21.330770   1.000000
   13       -8.186706   1.000000
   14       -8.186705   1.000000
   15        2.278616   0.865530
   16        2.278616   0.865528
   17        2.278616   0.865527
   18        2.278616   0.865526
   19        2.644161  -0.000036
   20        2.644163  -0.000036
   21        9.350431   0.000000
   22        9.350432   0.000000
   23        9.350432   0.000000
   24        9.350432   0.000000
   25        9.710627   0.000000
   26        9.710628   0.000000
   27        9.956946   0.000000
   28        9.956948   0.000000
 
  0.1111111E+00 -0.1288453E-16  0.0000000E+00  0.2743484E-02
    1      -31.662456   1.000000
    2      -31.662456   1.000000
    3      -31.662349   1.000000
    4      -31.662349   1.000000
    5      -24.969702   1.000000
    6      -24.969701   1.000000
    7      -24.968361   1.000000
    8      -24.968360   1.000000
    9      -24.967887   1.000000
   10      -24.967887   1.000000
   11      -21.324326   1.000000
   12      -21.324326   1.000000
   13       -8.212121   1.000000
   14       -8.212120   1.000000
   15        1.476878   1.000000
   16        1.476879   1.000000
   17        2.225831   1.027043
   18        2.225831   1.027043
   19        3.524918  -0.000000
   20        3.524919  -0.000000
   21        8.702973   0.000000
   22        8.702974   0.000000
   23        9.452237   0.000000
   24        9.452237   0.000000
   25        9.719217   0.000000
   26        9.719219   0.000000
   27       10.920693   0.000000
   28       11.131436   0.000000
 
  0.2222222E+00 -0.2576907E-16  0.1387779E-16  0.2743484E-02
    1      -31.662345   1.000000
    2      -31.662345   1.000000
    3      -31.661931   1.000000
    4      -31.661930   1.000000
    5      -24.969178   1.000000
    6      -24.969178   1.000000
    7      -24.968026   1.000000
    8      -24.968025   1.000000
    9      -24.966779   1.000000
   10      -24.966779   1.000000
   11      -21.307826   1.000000
   12      -21.307826   1.000000
   13       -8.276395   1.000000
   14       -8.276394   1.000000
   15        0.700726   1.000000
   16        0.700726   1.000000
   17        2.098969   1.002829
   18        2.098969   1.002829
   19        4.422293  -0.000000
   20        4.422294  -0.000000
   21        8.330496   0.000000
   22        8.330497   0.000000
   23        9.442548   0.000000
   24        9.442552   0.000000
   25        9.775734   0.000000
   26        9.775877   0.000000
   27       10.506607   0.000000
   28       10.874266   0.000000
 
  0.3333333E+00 -0.5253139E-16  0.0000000E+00  0.2743484E-02
    1      -31.662222   1.000000
    2      -31.662222   1.000000
    3      -31.661471   1.000000
    4      -31.661471   1.000000
    5      -24.969300   1.000000
    6      -24.969300   1.000000
    7      -24.966931   1.000000
    8      -24.966930   1.000000
    9      -24.965515   1.000000
   10      -24.965515   1.000000
   11      -21.288997   1.000000
   12      -21.288996   1.000000
   13       -8.349518   1.000000
   14       -8.349518   1.000000
   15        0.157353   1.000000
   16        0.157354   1.000000
   17        1.964915   1.000002
   18        1.964915   1.000002
   19        4.895395  -0.000000
   20        4.895396  -0.000000
   21        8.630589   0.000000
   22        8.630590   0.000000
   23        9.134140   0.000000
   24        9.134140   0.000000
   25        9.493811   0.000000
   26        9.493811   0.000000
   27       10.027479   0.000000
   28       10.027481   0.000000
 
  0.4444444E+00 -0.5153814E-16  0.2775558E-16  0.2743484E-02
    1      -31.662167   1.000000
    2      -31.662167   1.000000
    3      -31.661196   1.000000
    4      -31.661195   1.000000
    5      -24.969474   1.000000
    6      -24.969474   1.000000
    7      -24.966132   1.000000
    8      -24.966132   1.000000
    9      -24.964694   1.000000
   10      -24.964694   1.000000
   11      -21.276662   1.000000
   12      -21.276662   1.000000
   13       -8.397278   1.000000
   14       -8.397277   1.000000
   15       -0.120857   1.000000
   16       -0.120857   1.000000
   17        1.882429   1.000000
   18        1.882429   1.000000
   19        5.007080  -0.000000
   20        5.007081  -0.000000
   21        8.910835   0.000000
   22        8.910835   0.000000
   23        8.980708   0.000000
   24        8.980711   0.000000
   25        9.260996   0.000000
   26        9.260996   0.000000
   27       10.218533   0.000000
   28       10.218533   0.000000
 
  0.0000000E+00  0.1111111E+00  0.0000000E+00  0.2743484E-02
    1      -31.662456   1.000000
    2      -31.662455   1.000000
    3      -31.662349   1.000000
    4      -31.662348   1.000000
    5      -24.969702   1.000000
    6      -24.969701   1.000000
    7      -24.968361   1.000000
    8      -24.968360   1.000000
    9      -24.967887   1.000000
   10      -24.967887   1.000000
   11      -21.324326   1.000000
   12      -21.324326   1.000000
   13       -8.212121   1.000000
   14       -8.212120   1.000000
   15        1.476878   1.000000
   16        1.476879   1.000000
   17        2.225831   1.027043
   18        2.225831   1.027042
   19        3.524918  -0.000000
   20        3.524919  -0.000000
   21        8.702973   0.000000
   22        8.702974   0.000000
   23        9.452237   0.000000
   24        9.452237   0.000000
   25        9.719218   0.000000
   26        9.719219   0.000000
   27       10.907660   0.000000
   28       11.159731   0.000000
 
  0.1111111E+00  0.1111111E+00  0.0000000E+00  0.2743484E-02
    1      -31.662406   1.000000
    2      -31.662405   1.000000
    3      -31.662329   1.000000
    4      -31.662328   1.000000
    5      -24.969633   1.000000
    6      -24.969633   1.000000
    7      -24.968110   1.000000
    8      -24.968109   1.000000
    9      -24.967948   1.000000
   10      -24.967948   1.000000
   11      -21.322162   1.000000
   12      -21.322161   1.000000
   13       -8.220353   1.000000
   14       -8.220353   1.000000
   15        1.392323   1.000000
   16        1.392324   1.000000
   17        2.104882   1.003561
   18        2.104882   1.003562
   19        3.751482  -0.000000
   20        3.751483  -0.000000
   21        8.470775   0.000000
   22        8.470775   0.000000
   23        9.458564   0.000000
   24        9.458564   0.000000
   25        9.939436   0.000000
   26        9.939448   0.000000
   27       10.219536   0.000000
   28       10.219569   0.000000
 
  0.2222222E+00  0.1111111E+00  0.0000000E+00  0.2743484E-02
    1      -31.662308   1.000000
    2      -31.662308   1.000000
    3      -31.662011   1.000000
    4      -31.662010   1.000000
    5      -24.969135   1.000000
    6      -24.969134   1.000000
    7      -24.968047   1.000000
    8      -24.968046   1.000000
    9      -24.966938   1.000000
   10      -24.966938   1.000000
   11      -21.309023   1.000000
   12      -21.309023   1.000000
   13       -8.271078   1.000000
   14       -8.271077   1.000000
   15        0.814616   1.000000
   16        0.814617   1.000000
   17        1.951147   1.000001
   18        1.951147   1.000001
   19        4.529483  -0.000000
   20        4.529484  -0.000000
   21        8.063878   0.000000
   22        8.063878   0.000000
   23        9.117485   0.000000
   24        9.117486   0.000000
   25        9.843465   0.000000
   26        9.843466   0.000000
   27       10.412447   0.000000
   28       10.412455   0.000000
 
  0.3333333E+00  0.1111111E+00 -0.2775558E-16  0.2743484E-02
    1      -31.662190   1.000000
    2      -31.662190   1.000000
    3      -31.661594   1.000000
    4      -31.661593   1.000000
    5      -24.968963   1.000000
    6      -24.968962   1.000000
    7      -24.967321   1.000000
    8      -24.967321   1.000000
    9      -24.965696   1.000000
   10      -24.965696   1.000000
   11      -21.291011   1.000000
   12      -21.291010   1.000000
   13       -8.340412   1.000000
   14       -8.340411   1.000000
   15        0.282009   1.000000
   16        0.282009   1.000000
   17        1.781429   1.000000
   18        1.781429   1.000000
   19        5.148800   0.000000
   20        5.148801   0.000000
   21        8.155893   0.000000
   22        8.155893   0.000000
   23        8.571937   0.000000
   24        8.571939   0.000000
   25        9.730672   0.000000
   26        9.730674   0.000000
   27       11.039956   0.000000
   28       11.120296   0.000000
 
  0.4444444E+00  0.1111111E+00  0.2775558E-16  0.2743484E-02
    1      -31.662099   1.000000
    2      -31.662099   1.000000
    3      -31.661254   1.000000
    4      -31.661254   1.000000
    5      -24.969086   1.000000
    6      -24.969086   1.000000
    7      -24.966309   1.000000
    8      -24.966308   1.000000
    9      -24.964873   1.000000
   10      -24.964873   1.000000
   11      -21.276475   1.000000
   12      -21.276475   1.000000
   13       -8.395801   1.000000
   14       -8.395800   1.000000
   15       -0.047352   1.000000
   16       -0.047352   1.000000
   17        1.648650   1.000000
   18        1.648650   1.000000
   19        5.378549   0.000000
   20        5.378550   0.000000
   21        8.070861   0.000000
   22        8.070864   0.000000
   23        8.988858   0.000000
   24        8.988858   0.000000
   25        9.547279   0.000000
   26        9.547280   0.000000
   27       10.881168   0.000000
   28       10.882343   0.000000
 
 -0.4444444E+00  0.1111111E+00 -0.2775558E-16  0.2743484E-02
    1      -31.662078   1.000000
    2      -31.662078   1.000000
    3      -31.661176   1.000000
    4      -31.661175   1.000000
    5      -24.969122   1.000000
    6      -24.969122   1.000000
    7      -24.965939   1.000000
    8      -24.965939   1.000000
    9      -24.964730   1.000000
   10      -24.964730   1.000000
   11      -21.272362   1.000000
   12      -21.272361   1.000000
   13       -8.411524   1.000000
   14       -8.411523   1.000000
   15       -0.132037   1.000000
   16       -0.132036   1.000000
   17        1.609564   1.000000
   18        1.609564   1.000000
   19        5.421970   0.000000
   20        5.421971   0.000000
   21        8.010254   0.000000
   22        8.010257   0.000000
   23        9.156683   0.000000
   24        9.156684   0.000000
   25        9.657581   0.000000
   26        9.657581   0.000000
   27       10.996533   0.000000
   28       10.999764   0.000000
 
 -0.3333333E+00  0.1111111E+00  0.1387779E-16  0.2743484E-02
    1      -31.662128   1.000000
    2      -31.662128   1.000000
    3      -31.661352   1.000000
    4      -31.661351   1.000000
    5      -24.968995   1.000000
    6      -24.968995   1.000000
    7      -24.966596   1.000000
    8      -24.966596   1.000000
    9      -24.965162   1.000000
   10      -24.965162   1.000000
   11      -21.280600   1.000000
   12      -21.280600   1.000000
   13       -8.380296   1.000000
   14       -8.380296   1.000000
   15        0.035040   1.000000
   16        0.035041   1.000000
   17        1.683725   1.000000
   18        1.683725   1.000000
   19        5.358963   0.000000
   20        5.358964   0.000000
   21        8.180879   0.000000
   22        8.180881   0.000000
   23        8.918550   0.000000
   24        8.918551   0.000000
   25        9.395996   0.000000
   26        9.395998   0.000000
   27       11.090170   0.000000
   28       11.374324   0.000000
 
 -0.2222222E+00  0.1111111E+00 -0.1387779E-16  0.2743484E-02
    1      -31.662234   1.000000
    2      -31.662234   1.000000
    3      -31.661727   1.000000
    4      -31.661727   1.000000
    5      -24.968808   1.000000
    6      -24.968808   1.000000
    7      -24.967800   1.000000
    8      -24.967800   1.000000
    9      -24.966115   1.000000
   10      -24.966115   1.000000
   11      -21.297259   1.000000
   12      -21.297258   1.000000
   13       -8.316637   1.000000
   14       -8.316636   1.000000
   15        0.433198   1.000000
   16        0.433199   1.000000
   17        1.852797   1.000000
   18        1.852797   1.000000
   19        4.985574  -0.000000
   20        4.985575  -0.000000
   21        8.162982   0.000000
   22        8.162983   0.000000
   23        8.878834   0.000000
   24        8.878836   0.000000
   25        9.663948   0.000000
   26        9.663950   0.000000
   27       10.512539   0.000000
   28       10.512637   0.000000
 
 -0.1111111E+00  0.1111111E+00 -0.7497628E-17  0.2743484E-02
    1      -31.662369   1.000000
    2      -31.662369   1.000000
    3      -31.662122   1.000000
    4      -31.662122   1.000000
    5      -24.969184   1.000000
    6      -24.969183   1.000000
    7      -24.968350   1.000000
    8      -24.968350   1.000000
    9      -24.967239   1.000000
   10      -24.967238   1.000000
   11      -21.314497   1.000000
   12      -21.314497   1.000000
   13       -8.250201   1.000000
   14       -8.250201   1.000000
   15        0.990484   1.000000
   16        0.990484   1.000000
   17        2.067348   1.000717
   18        2.067348   1.000717
   19        4.211218  -0.000000
   20        4.211219  -0.000000
   21        8.303094   0.000000
   22        8.303094   0.000000
   23        9.375395   0.000000
   24        9.375396   0.000000
   25        9.824450   0.000000
   26        9.824454   0.000000
   27       10.401621   0.000000
   28       10.404072   0.000000
 
 -0.3851860E-33  0.2222222E+00 -0.1387779E-16  0.2743484E-02
    1      -31.662346   1.000000
    2      -31.662345   1.000000
    3      -31.661931   1.000000
    4      -31.661930   1.000000
    5      -24.969179   1.000000
    6      -24.969178   1.000000
    7      -24.968025   1.000000
    8      -24.968025   1.000000
    9      -24.966779   1.000000
   10      -24.966779   1.000000
   11      -21.307826   1.000000
   12      -21.307826   1.000000
   13       -8.276395   1.000000
   14       -8.276394   1.000000
   15        0.700726   1.000000
   16        0.700726   1.000000
   17        2.098969   1.002829
   18        2.098969   1.002829
   19        4.422293  -0.000000
   20        4.422294  -0.000000
   21        8.330496   0.000000
   22        8.330497   0.000000
   23        9.442547   0.000000
   24        9.442548   0.000000
   25        9.775733   0.000000
   26        9.775751   0.000000
   27       10.477210   0.000000
   28       10.959200   0.000000
 
  0.1111111E+00  0.2222222E+00 -0.1387779E-16  0.2743484E-02
    1      -31.662308   1.000000
    2      -31.662308   1.000000
    3      -31.662011   1.000000
    4      -31.662010   1.000000
    5      -24.969135   1.000000
    6      -24.969134   1.000000
    7      -24.968047   1.000000
    8      -24.968046   1.000000
    9      -24.966938   1.000000
   10      -24.966938   1.000000
   11      -21.309023   1.000000
   12      -21.309023   1.000000
   13       -8.271078   1.000000
   14       -8.271077   1.000000
   15        0.814616   1.000000
   16        0.814617   1.000000
   17        1.951147   1.000001
   18        1.951147   1.000001
   19        4.529483  -0.000000
   20        4.529484  -0.000000
   21        8.063878   0.000000
   22        8.063878   0.000000
   23        9.117485   0.000000
   24        9.117486   0.000000
   25        9.843465   0.000000
   26        9.843465   0.000000
   27       10.412448   0.000000
   28       10.412462   0.000000
 
  0.2222222E+00  0.2222222E+00  0.0000000E+00  0.2743484E-02
    1      -31.662179   1.000000
    2      -31.662179   1.000000
    3      -31.661894   1.000000
    4      -31.661894   1.000000
    5      -24.969127   1.000000
    6      -24.969127   1.000000
    7      -24.967577   1.000000
    8      -24.967576   1.000000
    9      -24.966367   1.000000
   10      -24.966367   1.000000
   11      -21.300285   1.000000
   12      -21.300284   1.000000
   13       -8.303615   1.000000
   14       -8.303615   1.000000
   15        0.625661   1.000000
   16        0.625661   1.000000
   17        1.714911   1.000000
   18        1.714911   1.000000
   19        5.015153  -0.000000
   20        5.015155  -0.000000
   21        7.574845   0.000000
   22        7.574845   0.000000
   23        8.612957   0.000000
   24        8.612959   0.000000
   25        9.997135   0.000000
   26        9.997136   0.000000
   27       10.795373   0.000000
   28       10.795373   0.000000
 
  0.3333333E+00  0.2222222E+00 -0.2775558E-16  0.2743484E-02
    1      -31.662044   1.000000
    2      -31.662043   1.000000
    3      -31.661584   1.000000
    4      -31.661584   1.000000
    5      -24.968832   1.000000
    6      -24.968831   1.000000
    7      -24.967282   1.000000
    8      -24.967282   1.000000
    9      -24.965213   1.000000
   10      -24.965213   1.000000
   11      -21.285618   1.000000
   12      -21.285618   1.000000
   13       -8.358346   1.000000
   14       -8.358345   1.000000
   15        0.289456   1.000000
   16        0.289456   1.000000
   17        1.496750   1.000000
   18        1.496750   1.000000
   19        5.528472   0.000000
   20        5.528474   0.000000
   21        7.407954   0.000000
   22        7.407954   0.000000
   23        8.188972   0.000000
   24        8.188974   0.000000
   25       10.249604   0.000000
   26       10.249605   0.000000
   27       11.274989   0.000000
   28       11.274989   0.000000
 
  0.4444444E+00  0.2222222E+00  0.2775558E-16  0.2743484E-02
    1      -31.661933   1.000000
    2      -31.661933   1.000000
    3      -31.661308   1.000000
    4      -31.661308   1.000000
    5      -24.968545   1.000000
    6      -24.968544   1.000000
    7      -24.966652   1.000000
    8      -24.966652   1.000000
    9      -24.964517   1.000000
   10      -24.964516   1.000000
   11      -21.271885   1.000000
   12      -21.271884   1.000000
   13       -8.409158   1.000000
   14       -8.409158   1.000000
   15        0.029392   1.000000
   16        0.029392   1.000000
   17        1.272053   1.000000
   18        1.272053   1.000000
   19        5.874719   0.000000
   20        5.874721   0.000000
   21        7.448681   0.000000
   22        7.448682   0.000000
   23        8.341518   0.000000
   24        8.341518   0.000000
   25       10.122232   0.000000
   26       10.122234   0.000000
   27       11.562130   0.000000
   28       11.562170   0.000000
 
 -0.4444444E+00  0.2222222E+00 -0.1387779E-16  0.2743484E-02
    1      -31.661870   1.000000
    2      -31.661870   1.000000
    3      -31.661188   1.000000
    4      -31.661187   1.000000
    5      -24.968403   1.000000
    6      -24.968403   1.000000
    7      -24.965869   1.000000
    8      -24.965868   1.000000
    9      -24.964705   1.000000
   10      -24.964705   1.000000
   11      -21.265540   1.000000
   12      -21.265539   1.000000
   13       -8.432427   1.000000
   14       -8.432427   1.000000
   15       -0.078606   1.000000
   16       -0.078606   1.000000
   17        1.146647   1.000000
   18        1.146647   1.000000
   19        6.092028   0.000000
   20        6.092029   0.000000
   21        7.337715   0.000000
   22        7.337717   0.000000
   23        9.136486   0.000000
   24        9.136486   0.000000
   25        9.992359   0.000000
   26        9.992360   0.000000
   27       10.993274   0.000000
   28       10.993275   0.000000
 
 -0.3333333E+00  0.2222222E+00 -0.2081668E-16  0.2743484E-02
    1      -31.661902   1.000000
    2      -31.661902   1.000000
    3      -31.661264   1.000000
    4      -31.661264   1.000000
    5      -24.968282   1.000000
    6      -24.968282   1.000000
    7      -24.966006   1.000000
    8      -24.966006   1.000000
    9      -24.965165   1.000000
   10      -24.965165   1.000000
   11      -21.269619   1.000000
   12      -21.269619   1.000000
   13       -8.417899   1.000000
   14       -8.417899   1.000000
   15       -0.026895   1.000000
   16       -0.026894   1.000000
   17        1.208446   1.000000
   18        1.208446   1.000000
   19        6.183878   0.000000
   20        6.183879   0.000000
   21        7.386269   0.000000
   22        7.386272   0.000000
   23        8.932882   0.000000
   24        8.932883   0.000000
   25        9.949632   0.000000
   26        9.949634   0.000000
   27       11.342590   0.000000
   28       11.388271   0.000000
 
 -0.2222222E+00  0.2222222E+00 -0.2887304E-16  0.2743484E-02
    1      -31.662056   1.000000
    2      -31.662056   1.000000
    3      -31.661482   1.000000
    4      -31.661481   1.000000
    5      -24.968254   1.000000
    6      -24.968253   1.000000
    7      -24.967264   1.000000
    8      -24.967264   1.000000
    9      -24.965419   1.000000
   10      -24.965418   1.000000
   11      -21.282195   1.000000
   12      -21.282195   1.000000
   13       -8.372427   1.000000
   14       -8.372426   1.000000
   15        0.161134   1.000000
   16        0.161134   1.000000
   17        1.470890   1.000000
   18        1.470890   1.000000
   19        5.790207   0.000000
   20        5.790208   0.000000
   21        7.765597   0.000000
   22        7.765599   0.000000
   23        8.486196   0.000000
   24        8.486197   0.000000
   25        9.832678   0.000000
   26        9.832680   0.000000
   27       10.583671   0.000000
   28       10.583672   0.000000
 
 -0.1111111E+00  0.2222222E+00 -0.6938894E-17  0.2743484E-02
    1      -31.662234   1.000000
    2      -31.662234   1.000000
    3      -31.661727   1.000000
    4      -31.661727   1.000000
    5      -24.968808   1.000000
    6      -24.968808   1.000000
    7      -24.967800   1.000000
    8      -24.967800   1.000000
    9      -24.966115   1.000000
   10      -24.966115   1.000000
   11      -21.297259   1.000000
   12      -21.297258   1.000000
   13       -8.316637   1.000000
   14       -8.316636   1.000000
   15        0.433198   1.000000
   16        0.433199   1.000000
   17        1.852797   1.000000
   18        1.852797   1.000000
   19        4.985574  -0.000000
   20        4.985575  -0.000000
   21        8.162982   0.000000
   22        8.162983   0.000000
   23        8.878834   0.000000
   24        8.878836   0.000000
   25        9.663948   0.000000
   26        9.663950   0.000000
   27       10.512540   0.000000
   28       10.513113   0.000000
 
  0.3851860E-33  0.3333333E+00  0.2775558E-16  0.2743484E-02
    1      -31.662223   1.000000
    2      -31.662222   1.000000
    3      -31.661471   1.000000
    4      -31.661470   1.000000
    5      -24.969300   1.000000
    6      -24.969300   1.000000
    7      -24.966931   1.000000
    8      -24.966930   1.000000
    9      -24.965515   1.000000
   10      -24.965515   1.000000
   11      -21.288997   1.000000
   12      -21.288996   1.000000
   13       -8.349518   1.000000
   14       -8.349518   1.000000
   15        0.157353   1.000000
   16        0.157354   1.000000
   17        1.964915   1.000002
   18        1.964915   1.000002
   19        4.895395  -0.000000
   20        4.895396  -0.000000
   21        8.630589   0.000000
   22        8.630590   0.000000
   23        9.134140   0.000000
   24        9.134141   0.000000
   25        9.493810   0.000000
   26        9.493811   0.000000
   27       10.027479   0.000000
   28       10.027480   0.000000
 
  0.1111111E+00  0.3333333E+00  0.2775558E-16  0.2743484E-02
    1      -31.662190   1.000000
    2      -31.662190   1.000000
    3      -31.661593   1.000000
    4      -31.661593   1.000000
    5      -24.968963   1.000000
    6      -24.968962   1.000000
    7      -24.967321   1.000000
    8      -24.967321   1.000000
    9      -24.965696   1.000000
   10      -24.965696   1.000000
   11      -21.291011   1.000000
   12      -21.291010   1.000000
   13       -8.340412   1.000000
   14       -8.340411   1.000000
   15        0.282009   1.000000
   16        0.282010   1.000000
   17        1.781429   1.000000
   18        1.781429   1.000000
   19        5.148800   0.000000
   20        5.148801   0.000000
   21        8.155893   0.000000
   22        8.155893   0.000000
   23        8.571937   0.000000
   24        8.571939   0.000000
   25        9.730672   0.000000
   26        9.730674   0.000000
   27       11.022379   0.000000
   28       11.171994   0.000000
 
  0.2222222E+00  0.3333333E+00  0.0000000E+00  0.2743484E-02
    1      -31.662044   1.000000
    2      -31.662043   1.000000
    3      -31.661584   1.000000
    4      -31.661584   1.000000
    5      -24.968832   1.000000
    6      -24.968831   1.000000
    7      -24.967282   1.000000
    8      -24.967282   1.000000
    9      -24.965213   1.000000
   10      -24.965213   1.000000
   11      -21.285618   1.000000
   12      -21.285618   1.000000
   13       -8.358346   1.000000
   14       -8.358345   1.000000
   15        0.289456   1.000000
   16        0.289456   1.000000
   17        1.496750   1.000000
   18        1.496750   1.000000
   19        5.528472   0.000000
   20        5.528474   0.000000
   21        7.407954   0.000000
   22        7.407954   0.000000
   23        8.188972   0.000000
   24        8.188974   0.000000
   25       10.249604   0.000000
   26       10.249605   0.000000
   27       11.274989   0.000000
   28       11.274992   0.000000
 
  0.3333333E+00  0.3333333E+00  0.5551115E-16  0.2743484E-02
    1      -31.661918   1.000000
    2      -31.661918   1.000000
    3      -31.661398   1.000000
    4      -31.661398   1.000000
    5      -24.968928   1.000000
    6      -24.968928   1.000000
    7      -24.966980   1.000000
    8      -24.966980   1.000000
    9      -24.964192   1.000000
   10      -24.964191   1.000000
   11      -21.275327   1.000000
   12      -21.275326   1.000000
   13       -8.395003   1.000000
   14       -8.395002   1.000000
   15        0.138607   1.000000
   16        0.138607   1.000000
   17        1.334274   1.000000
   18        1.334274   1.000000
   19        5.563884   0.000000
   20        5.563887   0.000000
   21        6.969218   0.000000
   22        6.969218   0.000000
   23        8.311450   0.000000
   24        8.311451   0.000000
   25       10.804766   0.000000
   26       10.804766   0.000000
   27       11.868077   0.000000
   28       11.868085   0.000000
 
  0.4444444E+00  0.3333333E+00  0.5551115E-16  0.2743484E-02
    1      -31.661803   1.000000
    2      -31.661802   1.000000
    3      -31.661225   1.000000
    4      -31.661225   1.000000
    5      -24.968661   1.000000
    6      -24.968660   1.000000
    7      -24.966715   1.000000
    8      -24.966715   1.000000
    9      -24.963512   1.000000
   10      -24.963512   1.000000
   11      -21.264959   1.000000
   12      -21.264959   1.000000
   13       -8.432083   1.000000
   14       -8.432082   1.000000
   15       -0.003515   1.000000
   16       -0.003515   1.000000
   17        1.127297   1.000000
   18        1.127297   1.000000
   19        5.653685   0.000000
   20        5.653688   0.000000
   21        6.952969   0.000000
   22        6.952969   0.000000
   23        8.510347   0.000000
   24        8.510347   0.000000
   25       10.998698   0.000000
   26       10.998698   0.000000
   27       12.197842   0.000000
   28       12.197854   0.000000
 
 -0.4444444E+00  0.3333333E+00 -0.1387779E-16  0.2743484E-02
    1      -31.661700   1.000000
    2      -31.661700   1.000000
    3      -31.661157   1.000000
    4      -31.661156   1.000000
    5      -24.968193   1.000000
    6      -24.968193   1.000000
    7      -24.966296   1.000000
    8      -24.966295   1.000000
    9      -24.963744   1.000000
   10      -24.963744   1.000000
   11      -21.259356   1.000000
   12      -21.259355   1.000000
   13       -8.451758   1.000000
   14       -8.451758   1.000000
   15       -0.042462   1.000000
   16       -0.042461   1.000000
   17        0.902419   1.000000
   18        0.902420   1.000000
   19        5.940020   0.000000
   20        5.940022   0.000000
   21        7.220000   0.000000
   22        7.220000   0.000000
   23        8.867329   0.000000
   24        8.867329   0.000000
   25       10.481722   0.000000
   26       10.481723   0.000000
   27       11.501402   0.000000
   28       11.501408   0.000000
 
 -0.3333333E+00  0.3333333E+00  0.4062311E-16  0.2743484E-02
    1      -31.661736   1.000000
    2      -31.661736   1.000000
    3      -31.661218   1.000000
    4      -31.661217   1.000000
    5      -24.967982   1.000000
    6      -24.967982   1.000000
    7      -24.965696   1.000000
    8      -24.965696   1.000000
    9      -24.964789   1.000000
   10      -24.964789   1.000000
   11      -21.261251   1.000000
   12      -21.261251   1.000000
   13       -8.445887   1.000000
   14       -8.445887   1.000000
   15       -0.034464   1.000000
   16       -0.034464   1.000000
   17        0.893569   1.000000
   18        0.893570   1.000000
   19        6.319277   0.000000
   20        6.319279   0.000000
   21        7.252499   0.000000
   22        7.252501   0.000000
   23        9.466485   0.000000
   24        9.466485   0.000000
   25        9.921487   0.000000
   26        9.921488   0.000000
   27       10.689895   0.000000
   28       10.689909   0.000000
 
 -0.2222222E+00  0.3333333E+00 -0.6938894E-17  0.2743484E-02
    1      -31.661902   1.000000
    2      -31.661902   1.000000
    3      -31.661264   1.000000
    4      -31.661264   1.000000