<?xml version="1.0" encoding="ISO-8859-1"?>
<modeling>
 <generator>
  <i name="program" type="string">vasp </i>
  <i name="version" type="string">5.4.4.18Apr17-6-g9f103f2a35  </i>
  <i name="subversion" type="string">(build Nov 03 2018 10:20:46) complex            parallel </i>
  <i name="platform" type="string">LinuxIFC </i>
  <i name="date" type="string">2018 12 03 </i>
  <i name="time" type="string">16:47:29 </i>
 </generator>
 <incar>
  <i type="string" name="SYSTEM">   Og_FCC</i>
  <i type="string" name="PREC">accurate</i>
  <i type="string" name="ALGO">   Fast</i>
  <i type="logical" name="ADDGRID"> T  </i>
  <i type="logical" name="LSORBIT"> T  </i>
  <i type="int" name="ISPIN">     1</i>
  <i type="int" name="MAXMIX">    50</i>
  <i type="int" name="NELM">   100</i>
  <i type="int" name="NELMDL">    -5</i>
  <i type="int" name="NELMIN">     5</i>
  <i type="int" name="IBRION">    -1</i>
  <i type="int" name="NFREE">     5</i>
  <i name="EDIFF">      0.00000010</i>
  <i name="EDIFFG">      0.00001000</i>
  <i type="int" name="NSW">     1</i>
  <i type="int" name="ISIF">     7</i>
  <i type="int" name="ISYM">     2</i>
  <i name="SYMPREC">      0.00000010</i>
  <i name="ENCUT">    600.00000000</i>
  <i name="POTIM">      0.10000000</i>
  <i type="logical" name="LREAL"> F  </i>
  <i type="int" name="ISMEAR">     1</i>
  <i name="SIGMA">      0.10000000</i>
  <i name="KSPACING">      0.20000000</i>
  <i type="int" name="NWRITE">     2</i>
  <i type="logical" name="LWAVE"> F  </i>
  <i type="logical" name="LCHARG"> F  </i>
  <i type="logical" name="LVTOT"> F  </i>
  <i type="logical" name="GGA_COMPAT"> F  </i>
  <v type="int" name="KPOINT_BSE">    -1     0     0     0</v>
  <i type="int" name="NELM">   100</i>
  <i type="string" name="GGA"> PE</i>
 </incar>
 <structure name="primitive_cell" >
  <crystal>
   <varray name="basis" >
    <v>       4.58973550       0.00000000       0.00000000 </v>
    <v>       2.29486775       3.97482754      -0.00000000 </v>
    <v>       2.29486775       1.32494251       3.74750334 </v>
   </varray>
   <i name="volume">     68.36722887 </i>
   <varray name="rec_basis" >
    <v>       0.21787748      -0.12579162      -0.08894811 </v>
    <v>       0.00000000       0.25158324      -0.08894811 </v>
    <v>      -0.00000000       0.00000000       0.26684433 </v>
   </varray>
  </crystal>
  <varray name="positions" >
   <v>       0.00000000       0.00000000       0.00000000 </v>
  </varray>
 </structure>
 <varray name="primitive_index" >
  <v type="int" >        1 </v>
 </varray>
 <kpoints>
  <generation param="Gamma">
   <v type="int" name="divisions">       9        9        9 </v>
   <v name="usershift">      0.00000000       0.00000000       0.00000000 </v>
   <v name="genvec1">      0.11111111       0.00000000       0.00000000 </v>
   <v name="genvec2">      0.00000000       0.11111111      -0.00000000 </v>
   <v name="genvec3">      0.00000000      -0.00000000       0.11111111 </v>
   <v name="shift">      0.00000000       0.00000000       0.00000000 </v>
  </generation>
  <varray name="kpointlist" >
   <v>       0.00000000       0.00000000       0.00000000 </v>
   <v>       0.11111111      -0.00000000       0.00000000 </v>
   <v>       0.22222222      -0.00000000       0.00000000 </v>
   <v>       0.33333333      -0.00000000       0.00000000 </v>
   <v>       0.44444444      -0.00000000       0.00000000 </v>
   <v>       0.00000000       0.11111111       0.00000000 </v>
   <v>       0.11111111       0.11111111       0.00000000 </v>
   <v>       0.22222222       0.11111111       0.00000000 </v>
   <v>       0.33333333       0.11111111      -0.00000000 </v>
   <v>       0.44444444       0.11111111       0.00000000 </v>
   <v>      -0.44444444       0.11111111      -0.00000000 </v>
   <v>      -0.33333333       0.11111111       0.00000000 </v>
   <v>      -0.22222222       0.11111111      -0.00000000 </v>
   <v>      -0.11111111       0.11111111      -0.00000000 </v>
   <v>      -0.00000000       0.22222222      -0.00000000 </v>
   <v>       0.11111111       0.22222222      -0.00000000 </v>
   <v>       0.22222222       0.22222222       0.00000000 </v>
   <v>       0.33333333       0.22222222      -0.00000000 </v>
   <v>       0.44444444       0.22222222       0.00000000 </v>
   <v>      -0.44444444       0.22222222      -0.00000000 </v>
   <v>      -0.33333333       0.22222222      -0.00000000 </v>
   <v>      -0.22222222       0.22222222      -0.00000000 </v>
   <v>      -0.11111111       0.22222222      -0.00000000 </v>
   <v>       0.00000000       0.33333333       0.00000000 </v>
   <v>       0.11111111       0.33333333       0.00000000 </v>
   <v>       0.22222222       0.33333333       0.00000000 </v>
   <v>       0.33333333       0.33333333       0.00000000 </v>
   <v>       0.44444444       0.33333333       0.00000000 </v>
   <v>      -0.44444444       0.33333333      -0.00000000 </v>
   <v>      -0.33333333       0.33333333       0.00000000 </v>
   <v>      -0.22222222       0.33333333      -0.00000000 </v>
   <v>      -0.11111111       0.33333333       0.00000000 </v>
   <v>      -0.00000000       0.44444444      -0.00000000 </v>
   <v>       0.11111111       0.44444444       0.00000000 </v>
   <v>       0.22222222       0.44444444      -0.00000000 </v>
   <v>       0.33333333       0.44444444       0.00000000 </v>
   <v>       0.44444444       0.44444444       0.00000000 </v>
   <v>      -0.44444444       0.44444444      -0.00000000 </v>
   <v>      -0.33333333       0.44444444      -0.00000000 </v>
   <v>      -0.22222222       0.44444444      -0.00000000 </v>
   <v>      -0.11111111       0.44444444      -0.00000000 </v>
   <v>       0.00000000       0.00000000       0.11111111 </v>
   <v>       0.11111111      -0.00000000       0.11111111 </v>
   <v>       0.22222222      -0.00000000       0.11111111 </v>
   <v>       0.33333333      -0.00000000       0.11111111 </v>
   <v>       0.44444444      -0.00000000       0.11111111 </v>
   <v>      -0.44444444       0.00000000       0.11111111 </v>
   <v>      -0.33333333       0.00000000       0.11111111 </v>
   <v>      -0.22222222       0.00000000       0.11111111 </v>
   <v>      -0.11111111       0.00000000       0.11111111 </v>
   <v>       0.00000000       0.11111111       0.11111111 </v>
   <v>       0.11111111       0.11111111       0.11111111 </v>
   <v>       0.22222222       0.11111111       0.11111111 </v>
   <v>       0.33333333       0.11111111       0.11111111 </v>
   <v>       0.44444444       0.11111111       0.11111111 </v>
   <v>      -0.44444444       0.11111111       0.11111111 </v>
   <v>      -0.33333333       0.11111111       0.11111111 </v>
   <v>      -0.22222222       0.11111111       0.11111111 </v>
   <v>      -0.11111111       0.11111111       0.11111111 </v>
   <v>      -0.00000000       0.22222222       0.11111111 </v>
   <v>       0.11111111       0.22222222       0.11111111 </v>
   <v>       0.22222222       0.22222222       0.11111111 </v>
   <v>       0.33333333       0.22222222       0.11111111 </v>
   <v>       0.44444444       0.22222222       0.11111111 </v>
   <v>      -0.44444444       0.22222222       0.11111111 </v>
   <v>      -0.33333333       0.22222222       0.11111111 </v>
   <v>      -0.22222222       0.22222222       0.11111111 </v>
   <v>      -0.11111111       0.22222222       0.11111111 </v>
   <v>       0.00000000       0.33333333       0.11111111 </v>
   <v>       0.11111111       0.33333333       0.11111111 </v>
   <v>       0.22222222       0.33333333       0.11111111 </v>
   <v>       0.33333333       0.33333333       0.11111111 </v>
   <v>       0.44444444       0.33333333       0.11111111 </v>
   <v>      -0.44444444       0.33333333       0.11111111 </v>
   <v>      -0.33333333       0.33333333       0.11111111 </v>
   <v>      -0.22222222       0.33333333       0.11111111 </v>
   <v>      -0.11111111       0.33333333       0.11111111 </v>
   <v>       0.00000000       0.44444444       0.11111111 </v>
   <v>       0.11111111       0.44444444       0.11111111 </v>
   <v>       0.22222222       0.44444444       0.11111111 </v>
   <v>       0.33333333       0.44444444       0.11111111 </v>
   <v>       0.44444444       0.44444444       0.11111111 </v>
   <v>      -0.44444444       0.44444444       0.11111111 </v>
   <v>      -0.33333333       0.44444444       0.11111111 </v>
   <v>      -0.22222222       0.44444444       0.11111111 </v>
   <v>      -0.11111111       0.44444444       0.11111111 </v>
   <v>       0.00000000      -0.44444444       0.11111111 </v>
   <v>       0.11111111      -0.44444444       0.11111111 </v>
   <v>       0.22222222      -0.44444444       0.11111111 </v>
   <v>       0.33333333      -0.44444444       0.11111111 </v>
   <v>       0.44444444      -0.44444444       0.11111111 </v>
   <v>      -0.44444444      -0.44444444       0.11111111 </v>
   <v>      -0.33333333      -0.44444444       0.11111111 </v>
   <v>      -0.22222222      -0.44444444       0.11111111 </v>
   <v>      -0.11111111      -0.44444444       0.11111111 </v>
   <v>       0.00000000      -0.33333333       0.11111111 </v>
   <v>       0.11111111      -0.33333333       0.11111111 </v>
   <v>       0.22222222      -0.33333333       0.11111111 </v>
   <v>       0.33333333      -0.33333333       0.11111111 </v>
   <v>       0.44444444      -0.33333333       0.11111111 </v>
   <v>      -0.44444444      -0.33333333       0.11111111 </v>
   <v>      -0.33333333      -0.33333333       0.11111111 </v>
   <v>      -0.22222222      -0.33333333       0.11111111 </v>
   <v>      -0.11111111      -0.33333333       0.11111111 </v>
   <v>       0.00000000      -0.22222222       0.11111111 </v>
   <v>       0.11111111      -0.22222222       0.11111111 </v>
   <v>       0.22222222      -0.22222222       0.11111111 </v>
   <v>       0.33333333      -0.22222222       0.11111111 </v>
   <v>       0.44444444      -0.22222222       0.11111111 </v>
   <v>      -0.44444444      -0.22222222       0.11111111 </v>
   <v>      -0.33333333      -0.22222222       0.11111111 </v>
   <v>      -0.22222222      -0.22222222       0.11111111 </v>
   <v>      -0.11111111      -0.22222222       0.11111111 </v>
   <v>       0.00000000      -0.11111111       0.11111111 </v>
   <v>       0.11111111      -0.11111111       0.11111111 </v>
   <v>       0.22222222      -0.11111111       0.11111111 </v>
   <v>       0.33333333      -0.11111111       0.11111111 </v>
   <v>       0.44444444      -0.11111111       0.11111111 </v>
   <v>      -0.44444444      -0.11111111       0.11111111 </v>
   <v>      -0.33333333      -0.11111111       0.11111111 </v>
   <v>      -0.22222222      -0.11111111       0.11111111 </v>
   <v>      -0.11111111      -0.11111111       0.11111111 </v>
   <v>       0.00000000       0.00000000       0.22222222 </v>
   <v>       0.11111111      -0.00000000       0.22222222 </v>
   <v>       0.22222222       0.00000000       0.22222222 </v>
   <v>       0.33333333      -0.00000000       0.22222222 </v>
   <v>       0.44444444      -0.00000000       0.22222222 </v>
   <v>      -0.44444444       0.00000000       0.22222222 </v>
   <v>      -0.33333333       0.00000000       0.22222222 </v>
   <v>      -0.22222222       0.00000000       0.22222222 </v>
   <v>      -0.11111111       0.00000000       0.22222222 </v>
   <v>       0.00000000       0.11111111       0.22222222 </v>
   <v>       0.11111111       0.11111111       0.22222222 </v>
   <v>       0.22222222       0.11111111       0.22222222 </v>
   <v>       0.33333333       0.11111111       0.22222222 </v>
   <v>       0.44444444       0.11111111       0.22222222 </v>
   <v>      -0.44444444       0.11111111       0.22222222 </v>
   <v>      -0.33333333       0.11111111       0.22222222 </v>
   <v>      -0.22222222       0.11111111       0.22222222 </v>
   <v>      -0.11111111       0.11111111       0.22222222 </v>
   <v>      -0.00000000       0.22222222       0.22222222 </v>
   <v>       0.11111111       0.22222222       0.22222222 </v>
   <v>       0.22222222       0.22222222       0.22222222 </v>
   <v>       0.33333333       0.22222222       0.22222222 </v>
   <v>       0.44444444       0.22222222       0.22222222 </v>
   <v>      -0.44444444       0.22222222       0.22222222 </v>
   <v>      -0.33333333       0.22222222       0.22222222 </v>
   <v>      -0.22222222       0.22222222       0.22222222 </v>
   <v>      -0.11111111       0.22222222       0.22222222 </v>
   <v>       0.00000000       0.33333333       0.22222222 </v>
   <v>       0.11111111       0.33333333       0.22222222 </v>
   <v>       0.22222222       0.33333333       0.22222222 </v>
   <v>       0.33333333       0.33333333       0.22222222 </v>
   <v>       0.44444444       0.33333333       0.22222222 </v>
   <v>      -0.44444444       0.33333333       0.22222222 </v>
   <v>      -0.33333333       0.33333333       0.22222222 </v>
   <v>      -0.22222222       0.33333333       0.22222222 </v>
   <v>      -0.11111111       0.33333333       0.22222222 </v>
   <v>      -0.00000000       0.44444444       0.22222222 </v>
   <v>       0.11111111       0.44444444       0.22222222 </v>
   <v>       0.22222222       0.44444444       0.22222222 </v>
   <v>       0.33333333       0.44444444       0.22222222 </v>
   <v>       0.44444444       0.44444444       0.22222222 </v>
   <v>      -0.44444444       0.44444444       0.22222222 </v>
   <v>      -0.33333333       0.44444444       0.22222222 </v>
   <v>      -0.22222222       0.44444444       0.22222222 </v>
   <v>      -0.11111111       0.44444444       0.22222222 </v>
   <v>      -0.00000000      -0.44444444       0.22222222 </v>
   <v>       0.11111111      -0.44444444       0.22222222 </v>
   <v>       0.22222222      -0.44444444       0.22222222 </v>
   <v>       0.33333333      -0.44444444       0.22222222 </v>
   <v>       0.44444444      -0.44444444       0.22222222 </v>
   <v>      -0.44444444      -0.44444444       0.22222222 </v>
   <v>      -0.33333333      -0.44444444       0.22222222 </v>
   <v>      -0.22222222      -0.44444444       0.22222222 </v>
   <v>      -0.11111111      -0.44444444       0.22222222 </v>
   <v>       0.00000000      -0.33333333       0.22222222 </v>
   <v>       0.11111111      -0.33333333       0.22222222 </v>
   <v>       0.22222222      -0.33333333       0.22222222 </v>
   <v>       0.33333333      -0.33333333       0.22222222 </v>
   <v>       0.44444444      -0.33333333       0.22222222 </v>
   <v>      -0.44444444      -0.33333333       0.22222222 </v>
   <v>      -0.33333333      -0.33333333       0.22222222 </v>
   <v>      -0.22222222      -0.33333333       0.22222222 </v>
   <v>      -0.11111111      -0.33333333       0.22222222 </v>
   <v>       0.00000000      -0.22222222       0.22222222 </v>
   <v>       0.11111111      -0.22222222       0.22222222 </v>
   <v>       0.22222222      -0.22222222       0.22222222 </v>
   <v>       0.33333333      -0.22222222       0.22222222 </v>
   <v>       0.44444444      -0.22222222       0.22222222 </v>
   <v>      -0.44444444      -0.22222222       0.22222222 </v>
   <v>      -0.33333333      -0.22222222       0.22222222 </v>
   <v>      -0.22222222      -0.22222222       0.22222222 </v>
   <v>      -0.11111111      -0.22222222       0.22222222 </v>
   <v>       0.00000000      -0.11111111       0.22222222 </v>
   <v>       0.11111111      -0.11111111       0.22222222 </v>
   <v>       0.22222222      -0.11111111       0.22222222 </v>
   <v>       0.33333333      -0.11111111       0.22222222 </v>
   <v>       0.44444444      -0.11111111       0.22222222 </v>
   <v>      -0.44444444      -0.11111111       0.22222222 </v>
   <v>      -0.33333333      -0.11111111       0.22222222 </v>
   <v>      -0.22222222      -0.11111111       0.22222222 </v>
   <v>      -0.11111111      -0.11111111       0.22222222 </v>
   <v>       0.00000000       0.00000000       0.33333333 </v>
   <v>       0.11111111      -0.00000000       0.33333333 </v>
   <v>       0.22222222      -0.00000000       0.33333333 </v>
   <v>       0.33333333      -0.00000000       0.33333333 </v>
   <v>       0.44444444      -0.00000000       0.33333333 </v>
   <v>      -0.44444444       0.00000000       0.33333333 </v>
   <v>      -0.33333333       0.00000000       0.33333333 </v>
   <v>      -0.22222222       0.00000000       0.33333333 </v>
   <v>      -0.11111111      -0.00000000       0.33333333 </v>
   <v>       0.00000000       0.11111111       0.33333333 </v>
   <v>       0.11111111       0.11111111       0.33333333 </v>
   <v>       0.22222222       0.11111111       0.33333333 </v>
   <v>       0.33333333       0.11111111       0.33333333 </v>
   <v>       0.44444444       0.11111111       0.33333333 </v>
   <v>      -0.44444444       0.11111111       0.33333333 </v>
   <v>      -0.33333333       0.11111111       0.33333333 </v>
   <v>      -0.22222222       0.11111111       0.33333333 </v>
   <v>      -0.11111111       0.11111111       0.33333333 </v>
   <v>      -0.00000000       0.22222222       0.33333333 </v>
   <v>       0.11111111       0.22222222       0.33333333 </v>
   <v>       0.22222222       0.22222222       0.33333333 </v>
   <v>       0.33333333       0.22222222       0.33333333 </v>
   <v>       0.44444444       0.22222222       0.33333333 </v>
   <v>      -0.44444444       0.22222222       0.33333333 </v>
   <v>      -0.33333333       0.22222222       0.33333333 </v>
   <v>      -0.22222222       0.22222222       0.33333333 </v>
   <v>      -0.11111111       0.22222222       0.33333333 </v>
   <v>       0.00000000       0.33333333       0.33333333 </v>
   <v>       0.11111111       0.33333333       0.33333333 </v>
   <v>       0.22222222       0.33333333       0.33333333 </v>
   <v>       0.33333333       0.33333333       0.33333333 </v>
   <v>       0.44444444       0.33333333       0.33333333 </v>
   <v>      -0.44444444       0.33333333       0.33333333 </v>
   <v>      -0.33333333       0.33333333       0.33333333 </v>
   <v>      -0.22222222       0.33333333       0.33333333 </v>
   <v>      -0.11111111       0.33333333       0.33333333 </v>
   <v>       0.00000000       0.44444444       0.33333333 </v>
   <v>       0.11111111       0.44444444       0.33333333 </v>
   <v>       0.22222222       0.44444444       0.33333333 </v>
   <v>       0.33333333       0.44444444       0.33333333 </v>
   <v>       0.44444444       0.44444444       0.33333333 </v>
   <v>      -0.44444444       0.44444444       0.33333333 </v>
   <v>      -0.33333333       0.44444444       0.33333333 </v>
   <v>      -0.22222222       0.44444444       0.33333333 </v>
   <v>      -0.11111111       0.44444444       0.33333333 </v>
   <v>       0.00000000      -0.44444444       0.33333333 </v>
   <v>       0.11111111      -0.44444444       0.33333333 </v>
   <v>       0.22222222      -0.44444444       0.33333333 </v>
   <v>       0.33333333      -0.44444444       0.33333333 </v>
   <v>       0.44444444      -0.44444444       0.33333333 </v>
   <v>      -0.44444444      -0.44444444       0.33333333 </v>
   <v>      -0.33333333      -0.44444444       0.33333333 </v>
   <v>      -0.22222222      -0.44444444       0.33333333 </v>
   <v>      -0.11111111      -0.44444444       0.33333333 </v>
   <v>      -0.00000000      -0.33333333       0.33333333 </v>
   <v>       0.11111111      -0.33333333       0.33333333 </v>
   <v>       0.22222222      -0.33333333       0.33333333 </v>
   <v>       0.33333333      -0.33333333       0.33333333 </v>
   <v>       0.44444444      -0.33333333       0.33333333 </v>
   <v>      -0.44444444      -0.33333333       0.33333333 </v>
   <v>      -0.33333333      -0.33333333       0.33333333 </v>
   <v>      -0.22222222      -0.33333333       0.33333333 </v>
   <v>      -0.11111111      -0.33333333       0.33333333 </v>
   <v>       0.00000000      -0.22222222       0.33333333 </v>
   <v>       0.11111111      -0.22222222       0.33333333 </v>
   <v>       0.22222222      -0.22222222       0.33333333 </v>
   <v>       0.33333333      -0.22222222       0.33333333 </v>
   <v>       0.44444444      -0.22222222       0.33333333 </v>
   <v>      -0.44444444      -0.22222222       0.33333333 </v>
   <v>      -0.33333333      -0.22222222       0.33333333 </v>
   <v>      -0.22222222      -0.22222222       0.33333333 </v>
   <v>      -0.11111111      -0.22222222       0.33333333 </v>
   <v>       0.00000000      -0.11111111       0.33333333 </v>
   <v>       0.11111111      -0.11111111       0.33333333 </v>
   <v>       0.22222222      -0.11111111       0.33333333 </v>
   <v>       0.33333333      -0.11111111       0.33333333 </v>
   <v>       0.44444444      -0.11111111       0.33333333 </v>
   <v>      -0.44444444      -0.11111111       0.33333333 </v>
   <v>      -0.33333333      -0.11111111       0.33333333 </v>
   <v>      -0.22222222      -0.11111111       0.33333333 </v>
   <v>      -0.11111111      -0.11111111       0.33333333 </v>
   <v>       0.00000000       0.00000000       0.44444444 </v>
   <v>       0.11111111      -0.00000000       0.44444444 </v>
   <v>       0.22222222      -0.00000000       0.44444444 </v>
   <v>       0.33333333      -0.00000000       0.44444444 </v>
   <v>       0.44444444       0.00000000       0.44444444 </v>
   <v>      -0.44444444       0.00000000       0.44444444 </v>
   <v>      -0.33333333       0.00000000       0.44444444 </v>
   <v>      -0.22222222       0.00000000       0.44444444 </v>
   <v>      -0.11111111       0.00000000       0.44444444 </v>
   <v>       0.00000000       0.11111111       0.44444444 </v>
   <v>       0.11111111       0.11111111       0.44444444 </v>
   <v>       0.22222222       0.11111111       0.44444444 </v>
   <v>       0.33333333       0.11111111       0.44444444 </v>
   <v>       0.44444444       0.11111111       0.44444444 </v>
   <v>      -0.44444444       0.11111111       0.44444444 </v>
   <v>      -0.33333333       0.11111111       0.44444444 </v>
   <v>      -0.22222222       0.11111111       0.44444444 </v>
   <v>      -0.11111111       0.11111111       0.44444444 </v>
   <v>      -0.00000000       0.22222222       0.44444444 </v>
   <v>       0.11111111       0.22222222       0.44444444 </v>
   <v>       0.22222222       0.22222222       0.44444444 </v>
   <v>       0.33333333       0.22222222       0.44444444 </v>
   <v>       0.44444444       0.22222222       0.44444444 </v>
   <v>      -0.44444444       0.22222222       0.44444444 </v>
   <v>      -0.33333333       0.22222222       0.44444444 </v>
   <v>      -0.22222222       0.22222222       0.44444444 </v>
   <v>      -0.11111111       0.22222222       0.44444444 </v>
   <v>       0.00000000       0.33333333       0.44444444 </v>
   <v>       0.11111111       0.33333333       0.44444444 </v>
   <v>       0.22222222       0.33333333       0.44444444 </v>
   <v>       0.33333333       0.33333333       0.44444444 </v>
   <v>       0.44444444       0.33333333       0.44444444 </v>
   <v>      -0.44444444       0.33333333       0.44444444 </v>
   <v>      -0.33333333       0.33333333       0.44444444 </v>
   <v>      -0.22222222       0.33333333       0.44444444 </v>
   <v>      -0.11111111       0.33333333       0.44444444 </v>
   <v>      -0.00000000       0.44444444       0.44444444 </v>
   <v>       0.11111111       0.44444444       0.44444444 </v>
   <v>       0.22222222       0.44444444       0.44444444 </v>
   <v>       0.33333333       0.44444444       0.44444444 </v>
   <v>       0.44444444       0.44444444       0.44444444 </v>
   <v>      -0.44444444       0.44444444       0.44444444 </v>
   <v>      -0.33333333       0.44444444       0.44444444 </v>
   <v>      -0.22222222       0.44444444       0.44444444 </v>
   <v>      -0.11111111       0.44444444       0.44444444 </v>
   <v>       0.00000000      -0.44444444       0.44444444 </v>
   <v>       0.11111111      -0.44444444       0.44444444 </v>
   <v>       0.22222222      -0.44444444       0.44444444 </v>
   <v>       0.33333333      -0.44444444       0.44444444 </v>
   <v>       0.44444444      -0.44444444       0.44444444 </v>
   <v>      -0.44444444      -0.44444444       0.44444444 </v>
   <v>      -0.33333333      -0.44444444       0.44444444 </v>
   <v>      -0.22222222      -0.44444444       0.44444444 </v>
   <v>      -0.11111111      -0.44444444       0.44444444 </v>
   <v>      -0.00000000      -0.33333333       0.44444444 </v>
   <v>       0.11111111      -0.33333333       0.44444444 </v>
   <v>       0.22222222      -0.33333333       0.44444444 </v>
   <v>       0.33333333      -0.33333333       0.44444444 </v>
   <v>       0.44444444      -0.33333333       0.44444444 </v>
   <v>      -0.44444444      -0.33333333       0.44444444 </v>
   <v>      -0.33333333      -0.33333333       0.44444444 </v>
   <v>      -0.22222222      -0.33333333       0.44444444 </v>
   <v>      -0.11111111      -0.33333333       0.44444444 </v>
   <v>      -0.00000000      -0.22222222       0.44444444 </v>
   <v>       0.11111111      -0.22222222       0.44444444 </v>
   <v>       0.22222222      -0.22222222       0.44444444 </v>
   <v>       0.33333333      -0.22222222       0.44444444 </v>
   <v>       0.44444444      -0.22222222       0.44444444 </v>
   <v>      -0.44444444      -0.22222222       0.44444444 </v>
   <v>      -0.33333333      -0.22222222       0.44444444 </v>
   <v>      -0.22222222      -0.22222222       0.44444444 </v>
   <v>      -0.11111111      -0.22222222       0.44444444 </v>
   <v>       0.00000000      -0.11111111       0.44444444 </v>
   <v>       0.11111111      -0.11111111       0.44444444 </v>
   <v>       0.22222222      -0.11111111       0.44444444 </v>
   <v>       0.33333333      -0.11111111       0.44444444 </v>
   <v>       0.44444444      -0.11111111       0.44444444 </v>
   <v>      -0.44444444      -0.11111111       0.44444444 </v>
   <v>      -0.33333333      -0.11111111       0.44444444 </v>
   <v>      -0.22222222      -0.11111111       0.44444444 </v>
   <v>      -0.11111111      -0.11111111       0.44444444 </v>
  </varray>
  <varray name="weights" >
   <v>       0.00137174 </v>
   <v>       0.00274348 </v>
   <v>       0.00274348 </v>
   <v>       0.00274348 </v>
   <v>       0.00274348 </v>
   <v>       0.00274348 </v>
   <v>       0.00274348 </v>
   <v>       0.00274348 </v>
   <v>       0.00274348 </v>
   <v>       0.00274348 </v>
   <v>       0.00274348 </v>
   <v>       0.00274348 </v>
   <v>       0.00274348 </v>
   <v>       0.00274348 </v>
   <v>       0.00274348 </v>
   <v>       0.00274348 </v>
   <v>       0.00274348 </v>
   <v>       0.00274348 </v>
   <v>       0.00274348 </v>
   <v>       0.00274348 </v>
   <v>       0.00274348 </v>
   <v>       0.00274348 </v>
   <v>       0.00274348 </v>
   <v>       0.00274348 </v>
   <v>       0.00274348 </v>
   <v>       0.00274348 </v>
   <v>       0.00274348 </v>
   <v>       0.00274348 </v>
   <v>       0.00274348 </v>
   <v>       0.00274348 </v>
   <v>       0.00274348 </v>
   <v>       0.00274348 </v>
   <v>       0.00274348 </v>
   <v>       0.00274348 </v>
   <v>       0.00274348 </v>
   <v>       0.00274348 </v>
   <v>       0.00274348 </v>
   <v>       0.00274348 </v>
   <v>       0.00274348 </v>
   <v>       0.00274348 </v>
   <v>       0.00274348 </v>
   <v>       0.00274348 </v>
   <v>       0.00274348 </v>
   <v>       0.00274348 </v>
   <v>       0.00274348 </v>
   <v>       0.00274348 </v>
   <v>       0.00274348 </v>
   <v>       0.00274348 </v>
   <v>       0.00274348 </v>
   <v>       0.00274348 </v>
   <v>       0.00274348 </v>
   <v>       0.00274348 </v>
   <v>       0.00274348 </v>
   <v>       0.00274348 </v>
   <v>       0.00274348 </v>
   <v>       0.00274348 </v>
   <v>       0.00274348 </v>
   <v>       0.00274348 </v>
   <v>       0.00274348 </v>
   <v>       0.00274348 </v>
   <v>       0.00274348 </v>
   <v>       0.00274348 </v>
   <v>       0.00274348 </v>
   <v>       0.00274348 </v>
   <v>       0.00274348 </v>
   <v>       0.00274348 </v>
   <v>       0.00274348 </v>
   <v>       0.00274348 </v>
   <v>       0.00274348 </v>
   <v>       0.00274348 </v>
   <v>       0.00274348 </v>
   <v>       0.00274348 </v>
   <v>       0.00274348 </v>
   <v>       0.00274348 </v>
   <v>       0.00274348 </v>
   <v>       0.00274348 </v>
   <v>       0.00274348 </v>
   <v>       0.00274348 </v>
   <v>       0.00274348 </v>
   <v>       0.00274348 </v>
   <v>       0.00274348 </v>
   <v>       0.00274348 </v>
   <v>       0.00274348 </v>
   <v>       0.00274348 </v>
   <v>       0.00274348 </v>
   <v>       0.00274348 </v>
   <v>       0.00274348 </v>
   <v>       0.00274348 </v>
   <v>       0.00274348 </v>
   <v>       0.00274348 </v>
   <v>       0.00274348 </v>
   <v>       0.00274348 </v>
   <v>       0.00274348 </v>
   <v>       0.00274348 </v>
   <v>       0.00274348 </v>
   <v>       0.00274348 </v>
   <v>       0.00274348 </v>
   <v>       0.00274348 </v>
   <v>       0.00274348 </v>
   <v>       0.00274348 </v>
   <v>       0.00274348 </v>
   <v>       0.00274348 </v>
   <v>       0.00274348 </v>
   <v>       0.00274348 </v>
   <v>       0.00274348 </v>
   <v>       0.00274348 </v>
   <v>       0.00274348 </v>
   <v>       0.00274348 </v>
   <v>       0.00274348 </v>
   <v>       0.00274348 </v>
   <v>       0.00274348 </v>
   <v>       0.00274348 </v>
   <v>       0.00274348 </v>
   <v>       0.00274348 </v>
   <v>       0.00274348 </v>
   <v>       0.00274348 </v>
   <v>       0.00274348 </v>
   <v>       0.00274348 </v>
   <v>       0.00274348 </v>
   <v>       0.00274348 </v>
   <v>       0.00274348 </v>
   <v>       0.00274348 </v>
   <v>       0.00274348 </v>
   <v>       0.00274348 </v>
   <v>       0.00274348 </v>
   <v>       0.00274348 </v>
   <v>       0.00274348 </v>
   <v>       0.00274348 </v>
   <v>       0.00274348 </v>
   <v>       0.00274348 </v>
   <v>       0.00274348 </v>
   <v>       0.00274348 </v>
   <v>       0.00274348 </v>
   <v>       0.00274348 </v>
   <v>       0.00274348 </v>
   <v>       0.00274348 </v>
   <v>       0.00274348 </v>
   <v>       0.00274348 </v>
   <v>       0.00274348 </v>
   <v>       0.00274348 </v>
   <v>       0.00274348 </v>
   <v>       0.00274348 </v>
   <v>       0.00274348 </v>
   <v>       0.00274348 </v>
   <v>       0.00274348 </v>
   <v>       0.00274348 </v>
   <v>       0.00274348 </v>
   <v>       0.00274348 </v>
   <v>       0.00274348 </v>
   <v>       0.00274348 </v>
   <v>       0.00274348 </v>
   <v>       0.00274348 </v>
   <v>       0.00274348 </v>
   <v>       0.00274348 </v>
   <v>       0.00274348 </v>
   <v>       0.00274348 </v>
   <v>       0.00274348 </v>
   <v>       0.00274348 </v>
   <v>       0.00274348 </v>
   <v>       0.00274348 </v>
   <v>       0.00274348 </v>
   <v>       0.00274348 </v>
   <v>       0.00274348 </v>
   <v>       0.00274348 </v>
   <v>       0.00274348 </v>
   <v>       0.00274348 </v>
   <v>       0.00274348 </v>
   <v>       0.00274348 </v>
   <v>       0.00274348 </v>
   <v>       0.00274348 </v>
   <v>       0.00274348 </v>
   <v>       0.00274348 </v>
   <v>       0.00274348 </v>
   <v>       0.00274348 </v>
   <v>       0.00274348 </v>
   <v>       0.00274348 </v>
   <v>       0.00274348 </v>
   <v>       0.00274348 </v>
   <v>       0.00274348 </v>
   <v>       0.00274348 </v>
   <v>       0.00274348 </v>
   <v>       0.00274348 </v>
   <v>       0.00274348 </v>
   <v>       0.00274348 </v>
   <v>       0.00274348 </v>
   <v>       0.00274348 </v>
   <v>       0.00274348 </v>
   <v>       0.00274348 </v>
   <v>       0.00274348 </v>
   <v>       0.00274348 </v>
   <v>       0.00274348 </v>
   <v>       0.00274348 </v>
   <v>       0.00274348 </v>
   <v>       0.00274348 </v>
   <v>       0.00274348 </v>
   <v>       0.00274348 </v>
   <v>       0.00274348 </v>
   <v>       0.00274348 </v>
   <v>       0.00274348 </v>
   <v>       0.00274348 </v>
   <v>       0.00274348 </v>
   <v>       0.00274348 </v>
   <v>       0.00274348 </v>
   <v>       0.00274348 </v>
   <v>       0.00274348 </v>
   <v>       0.00274348 </v>
   <v>       0.00274348 </v>
   <v>       0.00274348 </v>
   <v>       0.00274348 </v>
   <v>       0.00274348 </v>
   <v>       0.00274348 </v>
   <v>       0.00274348 </v>
   <v>       0.00274348 </v>
   <v>       0.00274348 </v>
   <v>       0.00274348 </v>
   <v>       0.00274348 </v>
   <v>       0.00274348 </v>
   <v>       0.00274348 </v>
   <v>       0.00274348 </v>
   <v>       0.00274348 </v>
   <v>       0.00274348 </v>
   <v>       0.00274348 </v>
   <v>       0.00274348 </v>
   <v>       0.00274348 </v>
   <v>       0.00274348 </v>
   <v>       0.00274348 </v>
   <v>       0.00274348 </v>
   <v>       0.00274348 </v>
   <v>       0.00274348 </v>
   <v>       0.00274348 </v>
   <v>       0.00274348 </v>
   <v>       0.00274348 </v>
   <v>       0.00274348 </v>
   <v>       0.00274348 </v>
   <v>       0.00274348 </v>
   <v>       0.00274348 </v>
   <v>       0.00274348 </v>
   <v>       0.00274348 </v>
   <v>       0.00274348 </v>
   <v>       0.00274348 </v>
   <v>       0.00274348 </v>
   <v>       0.00274348 </v>
   <v>       0.00274348 </v>
   <v>       0.00274348 </v>
   <v>       0.00274348 </v>
   <v>       0.00274348 </v>
   <v>       0.00274348 </v>
   <v>       0.00274348 </v>
   <v>       0.00274348 </v>
   <v>       0.00274348 </v>
   <v>       0.00274348 </v>
   <v>       0.00274348 </v>
   <v>       0.00274348 </v>
   <v>       0.00274348 </v>
   <v>       0.00274348 </v>
   <v>       0.00274348 </v>
   <v>       0.00274348 </v>
   <v>       0.00274348 </v>
   <v>       0.00274348 </v>
   <v>       0.00274348 </v>
   <v>       0.00274348 </v>
   <v>       0.00274348 </v>
   <v>       0.00274348 </v>
   <v>       0.00274348 </v>
   <v>       0.00274348 </v>
   <v>       0.00274348 </v>
   <v>       0.00274348 </v>
   <v>       0.00274348 </v>
   <v>       0.00274348 </v>
   <v>       0.00274348 </v>
   <v>       0.00274348 </v>
   <v>       0.00274348 </v>
   <v>       0.00274348 </v>
   <v>       0.00274348 </v>
   <v>       0.00274348 </v>
   <v>       0.00274348 </v>
   <v>       0.00274348 </v>
   <v>       0.00274348 </v>
   <v>       0.00274348 </v>
   <v>       0.00274348 </v>
   <v>       0.00274348 </v>
   <v>       0.00274348 </v>
   <v>       0.00274348 </v>
   <v>       0.00274348 </v>
   <v>       0.00274348 </v>
   <v>       0.00274348 </v>
   <v>       0.00274348 </v>
   <v>       0.00274348 </v>
   <v>       0.00274348 </v>
   <v>       0.00274348 </v>
   <v>       0.00274348 </v>
   <v>       0.00274348 </v>
   <v>       0.00274348 </v>
   <v>       0.00274348 </v>
   <v>       0.00274348 </v>
   <v>       0.00274348 </v>
   <v>       0.00274348 </v>
   <v>       0.00274348 </v>
   <v>       0.00274348 </v>
   <v>       0.00274348 </v>
   <v>       0.00274348 </v>
   <v>       0.00274348 </v>
   <v>       0.00274348 </v>
   <v>       0.00274348 </v>
   <v>       0.00274348 </v>
   <v>       0.00274348 </v>
   <v>       0.00274348 </v>
   <v>       0.00274348 </v>
   <v>       0.00274348 </v>
   <v>       0.00274348 </v>
   <v>       0.00274348 </v>
   <v>       0.00274348 </v>
   <v>       0.00274348 </v>
   <v>       0.00274348 </v>
   <v>       0.00274348 </v>
   <v>       0.00274348 </v>
   <v>       0.00274348 </v>
   <v>       0.00274348 </v>
   <v>       0.00274348 </v>
   <v>       0.00274348 </v>
   <v>       0.00274348 </v>
   <v>       0.00274348 </v>
   <v>       0.00274348 </v>
   <v>       0.00274348 </v>
   <v>       0.00274348 </v>
   <v>       0.00274348 </v>
   <v>       0.00274348 </v>
   <v>       0.00274348 </v>
   <v>       0.00274348 </v>
   <v>       0.00274348 </v>
   <v>       0.00274348 </v>
   <v>       0.00274348 </v>
   <v>       0.00274348 </v>
   <v>       0.00274348 </v>
   <v>       0.00274348 </v>
   <v>       0.00274348 </v>
   <v>       0.00274348 </v>
   <v>       0.00274348 </v>
   <v>       0.00274348 </v>
   <v>       0.00274348 </v>
   <v>       0.00274348 </v>
   <v>       0.00274348 </v>
   <v>       0.00274348 </v>
   <v>       0.00274348 </v>
   <v>       0.00274348 </v>
   <v>       0.00274348 </v>
   <v>       0.00274348 </v>
   <v>       0.00274348 </v>
   <v>       0.00274348 </v>
   <v>       0.00274348 </v>
   <v>       0.00274348 </v>
   <v>       0.00274348 </v>
   <v>       0.00274348 </v>
   <v>       0.00274348 </v>
   <v>       0.00274348 </v>
   <v>       0.00274348 </v>
   <v>       0.00274348 </v>
   <v>       0.00274348 </v>
   <v>       0.00274348 </v>
   <v>       0.00274348 </v>
   <v>       0.00274348 </v>
   <v>       0.00274348 </v>
   <v>       0.00274348 </v>
   <v>       0.00274348 </v>
   <v>       0.00274348 </v>
  </varray>
 </kpoints>
 <parameters>
  <separator name="general" >
   <i type="string" name="SYSTEM">Og_FCC</i>
   <i type="logical" name="LCOMPAT"> F  </i>
  </separator>
  <separator name="electronic" >
   <i type="string" name="PREC">accura</i>
   <i name="ENMAX">    600.00000000</i>
   <i name="ENAUG">    361.02500000</i>
   <i name="EDIFF">      0.00000010</i>
   <i type="int" name="IALGO">    68</i>
   <i type="int" name="IWAVPR">    10</i>
   <i type="int" name="NBANDS">    28</i>
   <i name="NELECT">     18.00000000</i>
   <i type="int" name="TURBO">     0</i>
   <i type="int" name="IRESTART">     0</i>
   <i type="int" name="NREBOOT">     0</i>
   <i type="int" name="NMIN">     0</i>
   <i name="EREF">      0.00000000</i>
   <separator name="electronic smearing" >
    <i type="int" name="ISMEAR">     1</i>
    <i name="SIGMA">      0.10000000</i>
    <i name="KSPACING">      0.20000000</i>
    <i type="logical" name="KGAMMA"> T  </i>
   </separator>
   <separator name="electronic projectors" >
    <i type="logical" name="LREAL"> F  </i>
    <v name="ROPT">      0.00000000</v>
    <i type="int" name="LMAXPAW">  -100</i>
    <i type="int" name="LMAXMIX">     2</i>
    <i type="logical" name="NLSPLINE"> F  </i>
   </separator>
   <separator name="electronic startup" >
    <i type="int" name="ISTART">     0</i>
    <i type="int" name="ICHARG">     2</i>
    <i type="int" name="INIWAV">     1</i>
   </separator>
   <separator name="electronic spin" >
    <i type="int" name="ISPIN">     1</i>
    <i type="logical" name="LNONCOLLINEAR"> T  </i>
    <v name="MAGMOM">      1.00000000      1.00000000      1.00000000</v>
    <i name="NUPDOWN">     -1.00000000</i>
    <i type="logical" name="LSORBIT"> T  </i>
    <v name="SAXIS">      0.00000000      0.00000000      1.00000000</v>
    <i type="logical" name="LSPIRAL"> F  </i>
    <v name="QSPIRAL">      0.00000000      0.00000000      0.00000000</v>
    <i type="logical" name="LZEROZ"> F  </i>
   </separator>
   <separator name="electronic exchange-correlation" >
    <i type="logical" name="LASPH"> F  </i>
    <i type="logical" name="LMETAGGA"> F  </i>
   </separator>
   <separator name="electronic convergence" >
    <i type="int" name="NELM">   100</i>
    <i type="int" name="NELMDL">    -5</i>
    <i type="int" name="NELMIN">     5</i>
    <i name="ENINI">    600.00000000</i>
    <separator name="electronic convergence detail" >
     <i type="logical" name="LDIAG"> T  </i>
     <i type="logical" name="LSUBROT"> F  </i>
     <i name="WEIMIN">      0.00000000</i>
     <i name="EBREAK">      0.00000000</i>
     <i name="DEPER">      0.30000000</i>
     <i type="int" name="NRMM">     4</i>
     <i name="TIME">      0.40000000</i>
    </separator>
   </separator>
   <separator name="electronic mixer" >
    <i name="AMIX">      0.40000000</i>
    <i name="BMIX">      1.00000000</i>
    <i name="AMIN">      0.10000000</i>
    <i name="AMIX_MAG">      1.60000000</i>
    <i name="BMIX_MAG">      1.00000000</i>
    <separator name="electronic mixer details" >
     <i type="int" name="IMIX">     4</i>
     <i type="logical" name="MIXFIRST"> F  </i>
     <i type="int" name="MAXMIX">    50</i>
     <i name="WC">    100.00000000</i>
     <i type="int" name="INIMIX">     1</i>
     <i type="int" name="MIXPRE">     1</i>
     <i type="int" name="MREMOVE">     5</i>
    </separator>
   </separator>
   <separator name="electronic dipolcorrection" >
    <i type="logical" name="LDIPOL"> F  </i>
    <i type="logical" name="LMONO"> F  </i>
    <i type="int" name="IDIPOL">     0</i>
    <i name="EPSILON">      1.00000000</i>
    <v name="DIPOL">   -100.00000000   -100.00000000   -100.00000000</v>
    <i name="EFIELD">      0.00000000</i>
   </separator>
  </separator>
  <separator name="grids" >
   <i type="int" name="NGX">    40</i>
   <i type="int" name="NGY">    40</i>
   <i type="int" name="NGZ">    40</i>
   <i type="int" name="NGXF">    80</i>
   <i type="int" name="NGYF">    80</i>
   <i type="int" name="NGZF">    80</i>
   <i type="logical" name="ADDGRID"> T  </i>
  </separator>
  <separator name="ionic" >
   <i type="int" name="NSW">     1</i>
   <i type="int" name="IBRION">    -1</i>
   <i type="int" name="MDALGO">     0</i>
   <i type="int" name="ISIF">     7</i>
   <i name="PSTRESS">      0.00000000</i>
   <i name="EDIFFG">      0.00001000</i>
   <i type="int" name="NFREE">     5</i>
   <i name="POTIM">      0.10000000</i>
   <i name="SMASS">     -3.00000000</i>
   <i name="SCALEE">      1.00000000</i>
  </separator>
  <separator name="ionic md" >
   <i name="TEBEG">      0.00010000</i>
   <i name="TEEND">      0.00010000</i>
   <i type="int" name="NBLOCK">     1</i>
   <i type="int" name="KBLOCK">     1</i>
   <i type="int" name="NPACO">   256</i>
   <i name="APACO">     16.00000000</i>
  </separator>
  <separator name="symmetry" >
   <i type="int" name="ISYM">     2</i>
   <i name="SYMPREC">      0.00000010</i>
  </separator>
  <separator name="dos" >
   <i type="int" name="LORBIT">     0</i>
   <v name="RWIGS">     -1.00000000</v>
   <i type="int" name="NEDOS">   301</i>
   <i name="EMIN">     10.00000000</i>
   <i name="EMAX">    -10.00000000</i>
   <i name="EFERMI">      0.00000000</i>
  </separator>
  <separator name="writing" >
   <i type="int" name="NWRITE">     2</i>
   <i type="logical" name="LWAVE"> F  </i>
   <i type="logical" name="LDOWNSAMPLE"> F  </i>
   <i type="logical" name="LCHARG"> F  </i>
   <i type="logical" name="LPARD"> F  </i>
   <i type="logical" name="LVTOT"> F  </i>
   <i type="logical" name="LVHAR"> F  </i>
   <i type="logical" name="LELF"> F  </i>
   <i type="logical" name="LOPTICS"> F  </i>
   <v name="STM">      0.00000000      0.00000000      0.00000000      0.00000000      0.00000000      0.00000000      0.00000000</v>
  </separator>
  <separator name="performance" >
   <i type="int" name="NPAR">     1</i>
   <i type="int" name="NSIM">     4</i>
   <i type="int" name="NBLK">    -1</i>
   <i type="logical" name="LPLANE"> T  </i>
   <i type="logical" name="LSCALAPACK"> T  </i>
   <i type="logical" name="LSCAAWARE"> F  </i>
   <i type="logical" name="LSCALU"> F  </i>
   <i type="logical" name="LASYNC"> F  </i>
   <i type="logical" name="LORBITALREAL"> F  </i>
  </separator>
  <separator name="miscellaneous" >
   <i type="int" name="IDIOT">     3</i>
   <i type="int" name="ISPECIAL">     0</i>
   <i type="logical" name="LMUSIC"> F  </i>
   <v name="POMASS">      0.01000000</v>
   <v name="DARWINR">      0.00000000</v>
   <v name="DARWINV">      1.00000000</v>
   <i type="logical" name="LCORR"> T  </i>
  </separator>
  <i type="logical" name="GGA_COMPAT"> F  </i>
  <i type="logical" name="LBERRY"> F  </i>
  <i type="int" name="ICORELEVEL">     0</i>
  <i type="logical" name="LDAU"> F  </i>
  <i type="int" name="I_CONSTRAINED_M">     0</i>
  <separator name="electronic exchange-correlation" >
   <i type="string" name="GGA">PE</i>
   <i type="int" name="VOSKOWN">     0</i>
   <i type="logical" name="LHFCALC"> F  </i>
   <i type="string" name="PRECFOCK"></i>
   <i type="logical" name="LSYMGRAD"> F  </i>
   <i type="logical" name="LHFONE"> F  </i>
   <i type="logical" name="LRHFCALC"> F  </i>
   <i type="logical" name="LTHOMAS"> F  </i>
   <i type="logical" name="LMODELHF"> F  </i>
   <i name="ENCUT4O">     -1.00000000</i>
   <i type="int" name="EXXOEP">     0</i>
   <i type="int" name="FOURORBIT">     0</i>
   <i name="AEXX">      0.00000000</i>
   <i name="HFALPHA">      0.00000000</i>
   <i name="MCALPHA">      0.00000000</i>
   <i name="ALDAX">      1.00000000</i>
   <i name="AGGAX">      1.00000000</i>
   <i name="ALDAC">      1.00000000</i>
   <i name="AGGAC">      1.00000000</i>
   <i type="int" name="NKREDX">     1</i>
   <i type="int" name="NKREDY">     1</i>
   <i type="int" name="NKREDZ">     1</i>
   <i type="logical" name="SHIFTRED"> F  </i>
   <i type="logical" name="ODDONLY"> F  </i>
   <i type="logical" name="EVENONLY"> F  </i>
   <i type="int" name="LMAXFOCK">     0</i>
   <i type="int" name="NMAXFOCKAE">     0</i>
   <i type="logical" name="LFOCKAEDFT"> F  </i>
   <i name="HFSCREEN">      0.00000000</i>
   <i name="HFSCREENC">      0.00000000</i>
   <i type="int" name="NBANDSGWLOW">     0</i>
  </separator>
  <separator name="vdW DFT" >
   <i type="logical" name="LUSE_VDW"> F  </i>
   <i name="Zab_VDW">     -0.84910000</i>
   <i name="PARAM1">      0.12340000</i>
   <i name="PARAM2">      1.00000000</i>
   <i name="PARAM3">      0.00000000</i>
  </separator>
  <separator name="model GW" >
   <i type="int" name="MODEL_GW">     0</i>
   <i name="MODEL_EPS0">     41.02033732</i>
   <i name="MODEL_ALPHA">      1.00000000</i>
  </separator>
  <separator name="linear response parameters" >
   <i type="logical" name="LEPSILON"> F  </i>
   <i type="logical" name="LRPA"> F  </i>
   <i type="logical" name="LNABLA"> F  </i>
   <i type="logical" name="LVEL"> F  </i>
   <i type="int" name="KINTER">     0</i>
   <i name="CSHIFT">      0.10000000</i>
   <i name="OMEGAMAX">     -1.00000000</i>
   <i name="DEG_THRESHOLD">      0.00200000</i>
   <i name="RTIME">     -0.10000000</i>
   <i name="WPLASMAI">      0.00000000</i>
   <v name="DFIELD">      0.00000000      0.00000000      0.00000000</v>
   <v name="WPLASMA">      0.00000000      0.00000000      0.00000000      0.00000000      0.00000000      0.00000000      0.00000000      0.00000000      0.00000000</v>
  </separator>
  <separator name="orbital magnetization" >
   <i type="logical" name="NUCIND"> F  </i>
   <v name="MAGPOS">      0.00000000      0.00000000      0.00000000</v>
   <i type="logical" name="LNICSALL"> T  </i>
   <i type="logical" name="ORBITALMAG"> F  </i>
   <i type="logical" name="LMAGBLOCH"> F  </i>
   <i type="logical" name="LCHIMAG"> F  </i>
   <i type="logical" name="LGAUGE"> T  </i>
   <i type="int" name="MAGATOM">     0</i>
   <v name="MAGDIPOL">      0.00000000      0.00000000      0.00000000</v>
   <v name="AVECCONST">      0.00000000      0.00000000      0.00000000</v>
  </separator>
  <separator name="response functions" >
   <i type="logical" name="LADDER"> F  </i>
   <i type="logical" name="LRPAFORCE"> F  </i>
   <i type="logical" name="LFXC"> F  </i>
   <i type="logical" name="LHARTREE"> T  </i>
   <i type="int" name="IBSE">     0</i>
   <v type="int" name="KPOINT">    -1     0     0     0</v>
   <i type="logical" name="LTCTE"> F  </i>
   <i type="logical" name="LTETE"> F  </i>
   <i type="logical" name="LTRIPLET"> F  </i>
   <i type="logical" name="LFXCEPS"> F  </i>
   <i type="logical" name="LFXHEG"> F  </i>
   <i type="int" name="NATURALO">     2</i>
   <i type="logical" name="L2ORDER"> F  </i>
   <i type="logical" name="LMP2LT"> F  </i>
   <i type="logical" name="LUSEW"> F  </i>
   <i name="ENCUTGW">     -2.00000000</i>
   <i name="ENCUTGWSOFT">     -2.00000000</i>
   <i name="ENCUTLF">     -1.00000000</i>
   <i type="int" name="LMAXMP2">    -1</i>
   <i name="SCISSOR">      0.00000000</i>
   <i type="int" name="NOMEGA">     0</i>
   <i type="int" name="NOMEGAR">     0</i>
   <i type="int" name="NBANDSGW">    -1</i>
   <i type="int" name="NBANDSO">    -1</i>
   <i type="int" name="NBANDSV">    -1</i>
   <i type="int" name="NELM">   100</i>
   <i type="int" name="NELMHF">     1</i>
   <i type="int" name="DIM">     3</i>
   <i type="int" name="ANTIRES">     0</i>
   <i name="OMEGAMAX">    -30.00000000</i>
   <i name="OMEGAMIN">    -30.00000000</i>
   <i name="OMEGATL">   -200.00000000</i>
   <i type="int" name="OMEGAGRID">   140</i>
   <i name="CSHIFT">     -0.10000000</i>
   <i type="logical" name="SELFENERGY"> F  </i>
   <i type="logical" name="LSPECTRAL"> F  </i>
   <i type="logical" name="LSPECTRALGW"> F  </i>
   <i type="logical" name="LSINGLES"> F  </i>
   <i type="logical" name="LFERMIGW"> F  </i>
   <i type="logical" name="ODDONLYGW"> F  </i>
   <i type="logical" name="EVENONLYGW"> F  </i>
   <i type="int" name="NKREDLFX">     1</i>
   <i type="int" name="NKREDLFY">     1</i>
   <i type="int" name="NKREDLFZ">     1</i>
   <i type="int" name="MAXMEM">  2800</i>
   <i type="int" name="TELESCOPE">     0</i>
   <i type="int" name="TAUPAR">     1</i>
   <i type="int" name="OMEGAPAR">    -1</i>
   <i name="LAMBDA">      1.00000000</i>
  </separator>
  <separator name="External order field" >
   <i name="OFIELD_KAPPA">      0.00000000</i>
   <v name="OFIELD_K">      0.00000000      0.00000000      0.00000000</v>
   <i name="OFIELD_Q6_NEAR">      0.00000000</i>
   <i name="OFIELD_Q6_FAR">      0.00000000</i>
   <i name="OFIELD_A">      0.00000000</i>
  </separator>
 </parameters>
 <atominfo>
  <atoms>       1 </atoms>
  <types>       1 </types>
  <array name="atoms" >
   <dimension dim="1">ion</dimension>
   <field type="string">element</field>
   <field type="int">atomtype</field>
   <set>
    <rc><c>Og</c><c>   1</c></rc>
   </set>
  </array>
  <array name="atomtypes" >
   <dimension dim="1">type</dimension>
   <field type="int">atomspertype</field>
   <field type="string">element</field>
   <field>mass</field>
   <field>valence</field>
   <field type="string">pseudopotential</field>
   <set>
    <rc><c>   1</c><c>Og</c><c>      0.01000000</c><c>     18.00000000</c><c>  PAW Og, JanMewes Oct 18               </c></rc>
   </set>
  </array>
 </atominfo>
 <structure name="initialpos" >
  <crystal>
   <varray name="basis" >
    <v>       4.58973550       0.00000000       0.00000000 </v>
    <v>       2.29486775       3.97482754      -0.00000000 </v>
    <v>       2.29486775       1.32494251       3.74750334 </v>
   </varray>
   <i name="volume">     68.36722887 </i>
   <varray name="rec_basis" >
    <v>       0.21787748      -0.12579162      -0.08894811 </v>
    <v>       0.00000000       0.25158324      -0.08894811 </v>
    <v>      -0.00000000       0.00000000       0.26684433 </v>
   </varray>
  </crystal>
  <varray name="positions" >
   <v>       0.00000000       0.00000000       0.00000000 </v>
  </varray>
  <varray name="velocities" >
   <v>       0.00000000       0.00000000       0.00000000 </v>
  </varray>
 </structure>
 <calculation>
  <scstep>
   <time name="dav">   45.08   45.14</time>
   <time name="total">   48.28   48.35</time>
   <energy>
    <i name="alphaZ">     55.80534217 </i>
    <i name="ewald">  -1647.76284900 </i>
    <i name="hartreedc">   -722.93490608 </i>
    <i name="XCdc">    -69.31457229 </i>
    <i name="pawpsdc">   2268.28454800 </i>
    <i name="pawaedc">  -2184.08492831 </i>
    <i name="eentropy">      0.00007374 </i>
    <i name="bandstr">    -26.59784950 </i>
    <i name="atom">   2640.52872706 </i>
    <i name="e_fr_energy">    313.92358579 </i>
    <i name="e_wo_entrp">    313.92351205 </i>
    <i name="e_0_energy">    313.92356121 </i>
   </energy>
  </scstep>
  <scstep>
   <time name="dav">   54.34   54.42</time>
   <time name="total">   54.35   54.43</time>
   <energy>
    <i name="e_fr_energy">      4.00574343 </i>
    <i name="e_wo_entrp">      4.00576735 </i>
    <i name="e_0_energy">      4.00575141 </i>
   </energy>
  </scstep>
  <scstep>
   <time name="dav">   49.69   49.75</time>
   <time name="total">   49.70   49.76</time>
   <energy>
    <i name="e_fr_energy">    -12.90043708 </i>
    <i name="e_wo_entrp">    -12.90046584 </i>
    <i name="e_0_energy">    -12.90044667 </i>
   </energy>
  </scstep>
  <scstep>
   <time name="dav">   57.69   57.77</time>
   <time name="total">   57.70   57.78</time>
   <energy>
    <i name="e_fr_energy">    -13.39702464 </i>
    <i name="e_wo_entrp">    -13.39704704 </i>
    <i name="e_0_energy">    -13.39703210 </i>
   </energy>
  </scstep>
  <scstep>
   <time name="dav">   55.22   55.30</time>
   <time name="total">   61.76   61.85</time>
   <energy>
    <i name="e_fr_energy">    -13.41396362 </i>
    <i name="e_wo_entrp">    -13.41398595 </i>
    <i name="e_0_energy">    -13.41397107 </i>
   </energy>
  </scstep>
  <scstep>
   <time name="diag">   12.37   12.39</time>
   <time name="diis">   62.50   62.58</time>
   <time name="orth">    0.20    0.20</time>
   <time name="total">   85.16   85.27</time>
   <energy>
    <i name="e_fr_energy">    -13.25195594 </i>
    <i name="e_wo_entrp">    -13.25208671 </i>
    <i name="e_0_energy">    -13.25199953 </i>
   </energy>
  </scstep>
  <scstep>
   <time name="diag">   12.43   12.45</time>
   <time name="diis">   65.04   65.12</time>
   <time name="orth">    0.20    0.20</time>
   <time name="total">   87.94   88.05</time>
   <energy>
    <i name="e_fr_energy">    -13.29740456 </i>
    <i name="e_wo_entrp">    -13.29753247 </i>
    <i name="e_0_energy">    -13.29744720 </i>
   </energy>
  </scstep>
  <scstep>
   <time name="diag">   11.67   11.68</time>
   <time name="diis">   66.41   66.50</time>
   <time name="orth">    0.20    0.20</time>
   <time name="total">   88.09   88.20</time>
   <energy>
    <i name="e_fr_energy">    -13.30942508 </i>
    <i name="e_wo_entrp">    -13.30954943 </i>
    <i name="e_0_energy">    -13.30946653 </i>
   </energy>
  </scstep>
  <scstep>
   <time name="diag">   12.25   12.27</time>
   <time name="diis">   72.34   72.43</time>
   <time name="orth">    0.19    0.19</time>
   <time name="total">   95.33   95.45</time>
   <energy>
    <i name="e_fr_energy">    -13.31528401 </i>
    <i name="e_wo_entrp">    -13.31540788 </i>
    <i name="e_0_energy">    -13.31532530 </i>
   </energy>
  </scstep>
  <scstep>
   <time name="diag">   12.35   12.36</time>
   <time name="diis">   74.80   74.90</time>
   <time name="orth">    0.20    0.20</time>
   <time name="total">   97.57   97.70</time>
   <energy>
    <i name="e_fr_energy">    -13.31693908 </i>
    <i name="e_wo_entrp">    -13.31706271 </i>
    <i name="e_0_energy">    -13.31698029 </i>
   </energy>
  </scstep>
  <scstep>
   <time name="diag">   11.93   11.94</time>
   <time name="diis">   70.75   70.84</time>
   <time name="orth">    0.19    0.20</time>
   <time name="total">   93.53   93.64</time>
   <energy>
    <i name="e_fr_energy">    -13.31703744 </i>
    <i name="e_wo_entrp">    -13.31716091 </i>
    <i name="e_0_energy">    -13.31707860 </i>
   </energy>
  </scstep>
  <scstep>
   <time name="diag">   12.34   12.36</time>
   <time name="diis">   68.77   68.86</time>
   <time name="orth">    0.20    0.20</time>
   <time name="total">   92.18   92.30</time>
   <energy>
    <i name="e_fr_energy">    -13.31711511 </i>
    <i name="e_wo_entrp">    -13.31723851 </i>
    <i name="e_0_energy">    -13.31715624 </i>
   </energy>
  </scstep>
  <scstep>
   <time name="diag">   12.16   12.17</time>
   <time name="diis">   71.60   71.69</time>
   <time name="orth">    0.20    0.20</time>
   <time name="total">   94.37   94.48</time>
   <energy>
    <i name="e_fr_energy">    -13.31712972 </i>
    <i name="e_wo_entrp">    -13.31725315 </i>
    <i name="e_0_energy">    -13.31717086 </i>
   </energy>
  </scstep>
  <scstep>
   <time name="diag">   12.08   12.09</time>
   <time name="diis">   72.11   72.20</time>
   <time name="orth">    0.18    0.18</time>
   <time name="total">   93.66   93.77</time>
   <energy>
    <i name="e_fr_energy">    -13.31713381 </i>
    <i name="e_wo_entrp">    -13.31725726 </i>
    <i name="e_0_energy">    -13.31717496 </i>
   </energy>
  </scstep>
  <scstep>
   <time name="diag">   11.64   11.65</time>
   <time name="diis">   78.08   78.18</time>
   <time name="orth">    0.19    0.19</time>
   <time name="total">   99.37   99.49</time>
   <energy>
    <i name="e_fr_energy">    -13.31713514 </i>
    <i name="e_wo_entrp">    -13.31725860 </i>
    <i name="e_0_energy">    -13.31717629 </i>
   </energy>
  </scstep>
  <scstep>
   <time name="diag">    8.77    8.78</time>
   <time name="diis">   54.73   54.78</time>
   <time name="orth">    0.16    0.16</time>
   <time name="total">   71.62   71.69</time>
   <energy>
    <i name="e_fr_energy">    -13.31713391 </i>
    <i name="e_wo_entrp">    -13.31725737 </i>
    <i name="e_0_energy">    -13.31717506 </i>
   </energy>
  </scstep>
  <scstep>
   <time name="diag">    8.77    8.78</time>
   <time name="diis">   47.37   47.42</time>
   <time name="orth">    0.16    0.16</time>
   <time name="total">   64.34   64.40</time>
   <energy>
    <i name="e_fr_energy">    -13.31713363 </i>
    <i name="e_wo_entrp">    -13.31725709 </i>
    <i name="e_0_energy">    -13.31717478 </i>
   </energy>
  </scstep>
  <scstep>
   <time name="diag">    8.46    8.46</time>
   <time name="diis">   41.18   41.22</time>
   <time name="orth">    0.16    0.16</time>
   <time name="total">   57.94   57.99</time>
   <energy>
    <i name="e_fr_energy">    -13.31713375 </i>
    <i name="e_wo_entrp">    -13.31725721 </i>
    <i name="e_0_energy">    -13.31717490 </i>
   </energy>
  </scstep>
  <scstep>
   <time name="diag">    9.00    9.00</time>
   <time name="diis">   34.63   34.67</time>
   <time name="orth">    0.16    0.16</time>
   <time name="total">   51.95   52.00</time>
   <energy>
    <i name="e_fr_energy">    -13.31713386 </i>
    <i name="e_wo_entrp">    -13.31725732 </i>
    <i name="e_0_energy">    -13.31717502 </i>
   </energy>
  </scstep>
  <scstep>
   <time name="diag">    9.23    9.24</time>
   <time name="diis">   32.30   32.33</time>
   <time name="orth">    0.16    0.16</time>
   <time name="total">   44.33   44.37</time>
   <energy>
    <i name="alphaZ">     55.80534217 </i>
    <i name="ewald">  -1647.76284900 </i>
    <i name="hartreedc">   -735.47883677 </i>
    <i name="XCdc">    -68.96200832 </i>
    <i name="pawpsdc">   2322.02651244 </i>
    <i name="pawaedc">  -2246.59492380 </i>
    <i name="eentropy">      0.00012345 </i>
    <i name="bandstr">   -332.87922110 </i>
    <i name="atom">   2640.52872706 </i>
    <i name="e_fr_energy">    -13.31713386 </i>
    <i name="e_wo_entrp">    -13.31725732 </i>
    <i name="e_0_energy">    -13.31717502 </i>
   </energy>
  </scstep>
  <structure>
   <crystal>
    <varray name="basis" >
     <v>       4.58973550       0.00000000       0.00000000 </v>
     <v>       2.29486775       3.97482754      -0.00000000 </v>
     <v>       2.29486775       1.32494251       3.74750334 </v>
    </varray>
    <i name="volume">     68.36722887 </i>
    <varray name="rec_basis" >
     <v>       0.21787748      -0.12579162      -0.08894811 </v>
     <v>       0.00000000       0.25158324      -0.08894811 </v>
     <v>      -0.00000000       0.00000000       0.26684433 </v>
    </varray>
   </crystal>
   <varray name="positions" >
    <v>       0.00000000       0.00000000       0.00000000 </v>
   </varray>
  </structure>
  <varray name="forces" >
   <v>       0.00000000       0.00000000       0.00000000 </v>
  </varray>
  <varray name="stress" >
   <v>      -0.44717707       0.00000794      -0.00001073 </v>
   <v>       0.00001629      -0.44721298      -0.00000517 </v>
   <v>      -0.00000137       0.00000387      -0.44722875 </v>
  </varray>
  <energy>
   <i name="e_fr_energy">    -13.31713386 </i>
   <i name="e_wo_entrp">    -13.31717502 </i>
   <i name="e_0_energy">      0.00012345 </i>
  </energy>
  <time name="totalsc"> 1539.62 1541.45</time>
  <eigenvalues>
   <array>
    <dimension dim="1">band</dimension>
    <dimension dim="2">kpoint</dimension>
    <dimension dim="3">spin</dimension>
    <field>eigene</field>
    <field>occ</field>
    <set>
     <set comment="spin 1">
      <set comment="kpoint 1">
       <r>  -31.6625    1.0000 </r>
       <r>  -31.6625    1.0000 </r>
       <r>  -31.6625    1.0000 </r>
       <r>  -31.6625    1.0000 </r>
       <r>  -24.9701    1.0000 </r>
       <r>  -24.9701    1.0000 </r>
       <r>  -24.9683    1.0000 </r>
       <r>  -24.9683    1.0000 </r>
       <r>  -24.9683    1.0000 </r>
       <r>  -24.9683    1.0000 </r>
       <r>  -21.3308    1.0000 </r>
       <r>  -21.3308    1.0000 </r>
       <r>   -8.1867    1.0000 </r>
       <r>   -8.1867    1.0000 </r>
       <r>    2.2786    0.8655 </r>
       <r>    2.2786    0.8655 </r>
       <r>    2.2786    0.8655 </r>
       <r>    2.2786    0.8655 </r>
       <r>    2.6442   -0.0000 </r>
       <r>    2.6442   -0.0000 </r>
       <r>    9.3504    0.0000 </r>
       <r>    9.3504    0.0000 </r>
       <r>    9.3504    0.0000 </r>
       <r>    9.3504    0.0000 </r>
       <r>    9.7106    0.0000 </r>
       <r>    9.7106    0.0000 </r>
       <r>    9.9569    0.0000 </r>
       <r>    9.9569    0.0000 </r>
      </set>
      <set comment="kpoint 2">
       <r>  -31.6625    1.0000 </r>
       <r>  -31.6625    1.0000 </r>
       <r>  -31.6623    1.0000 </r>
       <r>  -31.6623    1.0000 </r>
       <r>  -24.9697    1.0000 </r>
       <r>  -24.9697    1.0000 </r>
       <r>  -24.9684    1.0000 </r>
       <r>  -24.9684    1.0000 </r>
       <r>  -24.9679    1.0000 </r>
       <r>  -24.9679    1.0000 </r>
       <r>  -21.3243    1.0000 </r>
       <r>  -21.3243    1.0000 </r>
       <r>   -8.2121    1.0000 </r>
       <r>   -8.2121    1.0000 </r>
       <r>    1.4769    1.0000 </r>
       <r>    1.4769    1.0000 </r>
       <r>    2.2258    1.0270 </r>
       <r>    2.2258    1.0270 </r>
       <r>    3.5249   -0.0000 </r>
       <r>    3.5249   -0.0000 </r>
       <r>    8.7030    0.0000 </r>
       <r>    8.7030    0.0000 </r>
       <r>    9.4522    0.0000 </r>
       <r>    9.4522    0.0000 </r>
       <r>    9.7192    0.0000 </r>
       <r>    9.7192    0.0000 </r>
       <r>   10.9207    0.0000 </r>
       <r>   11.1314    0.0000 </r>
      </set>
      <set comment="kpoint 3">
       <r>  -31.6623    1.0000 </r>
       <r>  -31.6623    1.0000 </r>
       <r>  -31.6619    1.0000 </r>
       <r>  -31.6619    1.0000 </r>
       <r>  -24.9692    1.0000 </r>
       <r>  -24.9692    1.0000 </r>
       <r>  -24.9680    1.0000 </r>
       <r>  -24.9680    1.0000 </r>
       <r>  -24.9668    1.0000 </r>
       <r>  -24.9668    1.0000 </r>
       <r>  -21.3078    1.0000 </r>
       <r>  -21.3078    1.0000 </r>
       <r>   -8.2764    1.0000 </r>
       <r>   -8.2764    1.0000 </r>
       <r>    0.7007    1.0000 </r>
       <r>    0.7007    1.0000 </r>
       <r>    2.0990    1.0028 </r>
       <r>    2.0990    1.0028 </r>
       <r>    4.4223   -0.0000 </r>
       <r>    4.4223   -0.0000 </r>
       <r>    8.3305    0.0000 </r>
       <r>    8.3305    0.0000 </r>
       <r>    9.4425    0.0000 </r>
       <r>    9.4426    0.0000 </r>
       <r>    9.7757    0.0000 </r>
       <r>    9.7759    0.0000 </r>
       <r>   10.5066    0.0000 </r>
       <r>   10.8743    0.0000 </r>
      </set>
      <set comment="kpoint 4">
       <r>  -31.6622    1.0000 </r>
       <r>  -31.6622    1.0000 </r>
       <r>  -31.6615    1.0000 </r>
       <r>  -31.6615    1.0000 </r>
       <r>  -24.9693    1.0000 </r>
       <r>  -24.9693    1.0000 </r>
       <r>  -24.9669    1.0000 </r>
       <r>  -24.9669    1.0000 </r>
       <r>  -24.9655    1.0000 </r>
       <r>  -24.9655    1.0000 </r>
       <r>  -21.2890    1.0000 </r>
       <r>  -21.2890    1.0000 </r>
       <r>   -8.3495    1.0000 </r>
       <r>   -8.3495    1.0000 </r>
       <r>    0.1574    1.0000 </r>
       <r>    0.1574    1.0000 </r>
       <r>    1.9649    1.0000 </r>
       <r>    1.9649    1.0000 </r>
       <r>    4.8954   -0.0000 </r>
       <r>    4.8954   -0.0000 </r>
       <r>    8.6306    0.0000 </r>
       <r>    8.6306    0.0000 </r>
       <r>    9.1341    0.0000 </r>
       <r>    9.1341    0.0000 </r>
       <r>    9.4938    0.0000 </r>
       <r>    9.4938    0.0000 </r>
       <r>   10.0275    0.0000 </r>
       <r>   10.0275    0.0000 </r>
      </set>
      <set comment="kpoint 5">
       <r>  -31.6622    1.0000 </r>
       <r>  -31.6622    1.0000 </r>
       <r>  -31.6612    1.0000 </r>
       <r>  -31.6612    1.0000 </r>
       <r>  -24.9695    1.0000 </r>
       <r>  -24.9695    1.0000 </r>
       <r>  -24.9661    1.0000 </r>
       <r>  -24.9661    1.0000 </r>
       <r>  -24.9647    1.0000 </r>
       <r>  -24.9647    1.0000 </r>
       <r>  -21.2767    1.0000 </r>
       <r>  -21.2767    1.0000 </r>
       <r>   -8.3973    1.0000 </r>
       <r>   -8.3973    1.0000 </r>
       <r>   -0.1209    1.0000 </r>
       <r>   -0.1209    1.0000 </r>
       <r>    1.8824    1.0000 </r>
       <r>    1.8824    1.0000 </r>
       <r>    5.0071   -0.0000 </r>
       <r>    5.0071   -0.0000 </r>
       <r>    8.9108    0.0000 </r>
       <r>    8.9108    0.0000 </r>
       <r>    8.9807    0.0000 </r>
       <r>    8.9807    0.0000 </r>
       <r>    9.2610    0.0000 </r>
       <r>    9.2610    0.0000 </r>
       <r>   10.2185    0.0000 </r>
       <r>   10.2185    0.0000 </r>
      </set>
      <set comment="kpoint 6">
       <r>  -31.6625    1.0000 </r>
       <r>  -31.6625    1.0000 </r>
       <r>  -31.6623    1.0000 </r>
       <r>  -31.6623    1.0000 </r>
       <r>  -24.9697    1.0000 </r>
       <r>  -24.9697    1.0000 </r>
       <r>  -24.9684    1.0000 </r>
       <r>  -24.9684    1.0000 </r>
       <r>  -24.9679    1.0000 </r>
       <r>  -24.9679    1.0000 </r>
       <r>  -21.3243    1.0000 </r>
       <r>  -21.3243    1.0000 </r>
       <r>   -8.2121    1.0000 </r>
       <r>   -8.2121    1.0000 </r>
       <r>    1.4769    1.0000 </r>
       <r>    1.4769    1.0000 </r>
       <r>    2.2258    1.0270 </r>
       <r>    2.2258    1.0270 </r>
       <r>    3.5249   -0.0000 </r>
       <r>    3.5249   -0.0000 </r>
       <r>    8.7030    0.0000 </r>
       <r>    8.7030    0.0000 </r>
       <r>    9.4522    0.0000 </r>
       <r>    9.4522    0.0000 </r>
       <r>    9.7192    0.0000 </r>
       <r>    9.7192    0.0000 </r>
       <r>   10.9077    0.0000 </r>
       <r>   11.1597    0.0000 </r>
      </set>
      <set comment="kpoint 7">
       <r>  -31.6624    1.0000 </r>
       <r>  -31.6624    1.0000 </r>
       <r>  -31.6623    1.0000 </r>
       <r>  -31.6623    1.0000 </r>
       <r>  -24.9696    1.0000 </r>
       <r>  -24.9696    1.0000 </r>
       <r>  -24.9681    1.0000 </r>
       <r>  -24.9681    1.0000 </r>
       <r>  -24.9679    1.0000 </r>
       <r>  -24.9679    1.0000 </r>
       <r>  -21.3222    1.0000 </r>
       <r>  -21.3222    1.0000 </r>
       <r>   -8.2204    1.0000 </r>
       <r>   -8.2204    1.0000 </r>
       <r>    1.3923    1.0000 </r>
       <r>    1.3923    1.0000 </r>
       <r>    2.1049    1.0036 </r>
       <r>    2.1049    1.0036 </r>
       <r>    3.7515   -0.0000 </r>
       <r>    3.7515   -0.0000 </r>
       <r>    8.4708    0.0000 </r>
       <r>    8.4708    0.0000 </r>
       <r>    9.4586    0.0000 </r>
       <r>    9.4586    0.0000 </r>
       <r>    9.9394    0.0000 </r>
       <r>    9.9394    0.0000 </r>
       <r>   10.2195    0.0000 </r>
       <r>   10.2196    0.0000 </r>
      </set>
      <set comment="kpoint 8">
       <r>  -31.6623    1.0000 </r>
       <r>  -31.6623    1.0000 </r>
       <r>  -31.6620    1.0000 </r>
       <r>  -31.6620    1.0000 </r>
       <r>  -24.9691    1.0000 </r>
       <r>  -24.9691    1.0000 </r>
       <r>  -24.9680    1.0000 </r>
       <r>  -24.9680    1.0000 </r>
       <r>  -24.9669    1.0000 </r>
       <r>  -24.9669    1.0000 </r>
       <r>  -21.3090    1.0000 </r>
       <r>  -21.3090    1.0000 </r>
       <r>   -8.2711    1.0000 </r>
       <r>   -8.2711    1.0000 </r>
       <r>    0.8146    1.0000 </r>
       <r>    0.8146    1.0000 </r>
       <r>    1.9511    1.0000 </r>
       <r>    1.9511    1.0000 </r>
       <r>    4.5295   -0.0000 </r>
       <r>    4.5295   -0.0000 </r>
       <r>    8.0639    0.0000 </r>
       <r>    8.0639    0.0000 </r>
       <r>    9.1175    0.0000 </r>
       <r>    9.1175    0.0000 </r>
       <r>    9.8435    0.0000 </r>
       <r>    9.8435    0.0000 </r>
       <r>   10.4124    0.0000 </r>
       <r>   10.4125    0.0000 </r>
      </set>
      <set comment="kpoint 9">
       <r>  -31.6622    1.0000 </r>
       <r>  -31.6622    1.0000 </r>
       <r>  -31.6616    1.0000 </r>
       <r>  -31.6616    1.0000 </r>
       <r>  -24.9690    1.0000 </r>
       <r>  -24.9690    1.0000 </r>
       <r>  -24.9673    1.0000 </r>
       <r>  -24.9673    1.0000 </r>
       <r>  -24.9657    1.0000 </r>
       <r>  -24.9657    1.0000 </r>
       <r>  -21.2910    1.0000 </r>
       <r>  -21.2910    1.0000 </r>
       <r>   -8.3404    1.0000 </r>
       <r>   -8.3404    1.0000 </r>
       <r>    0.2820    1.0000 </r>
       <r>    0.2820    1.0000 </r>
       <r>    1.7814    1.0000 </r>
       <r>    1.7814    1.0000 </r>
       <r>    5.1488    0.0000 </r>
       <r>    5.1488    0.0000 </r>
       <r>    8.1559    0.0000 </r>
       <r>    8.1559    0.0000 </r>
       <r>    8.5719    0.0000 </r>
       <r>    8.5719    0.0000 </r>
       <r>    9.7307    0.0000 </r>
       <r>    9.7307    0.0000 </r>
       <r>   11.0400    0.0000 </r>
       <r>   11.1203    0.0000 </r>
      </set>
      <set comment="kpoint 10">
       <r>  -31.6621    1.0000 </r>
       <r>  -31.6621    1.0000 </r>
       <r>  -31.6613    1.0000 </r>
       <r>  -31.6613    1.0000 </r>
       <r>  -24.9691    1.0000 </r>
       <r>  -24.9691    1.0000 </r>
       <r>  -24.9663    1.0000 </r>
       <r>  -24.9663    1.0000 </r>
       <r>  -24.9649    1.0000 </r>
       <r>  -24.9649    1.0000 </r>
       <r>  -21.2765    1.0000 </r>
       <r>  -21.2765    1.0000 </r>
       <r>   -8.3958    1.0000 </r>
       <r>   -8.3958    1.0000 </r>
       <r>   -0.0474    1.0000 </r>
       <r>   -0.0474    1.0000 </r>
       <r>    1.6486    1.0000 </r>
       <r>    1.6487    1.0000 </r>
       <r>    5.3785    0.0000 </r>
       <r>    5.3786    0.0000 </r>
       <r>    8.0709    0.0000 </r>
       <r>    8.0709    0.0000 </r>
       <r>    8.9889    0.0000 </r>
       <r>    8.9889    0.0000 </r>
       <r>    9.5473    0.0000 </r>
       <r>    9.5473    0.0000 </r>
       <r>   10.8812    0.0000 </r>
       <r>   10.8823    0.0000 </r>
      </set>
      <set comment="kpoint 11">
       <r>  -31.6621    1.0000 </r>
       <r>  -31.6621    1.0000 </r>
       <r>  -31.6612    1.0000 </r>
       <r>  -31.6612    1.0000 </r>
       <r>  -24.9691    1.0000 </r>
       <r>  -24.9691    1.0000 </r>
       <r>  -24.9659    1.0000 </r>
       <r>  -24.9659    1.0000 </r>
       <r>  -24.9647    1.0000 </r>
       <r>  -24.9647    1.0000 </r>
       <r>  -21.2724    1.0000 </r>
       <r>  -21.2724    1.0000 </r>
       <r>   -8.4115    1.0000 </r>
       <r>   -8.4115    1.0000 </r>
       <r>   -0.1320    1.0000 </r>
       <r>   -0.1320    1.0000 </r>
       <r>    1.6096    1.0000 </r>
       <r>    1.6096    1.0000 </r>
       <r>    5.4220    0.0000 </r>
       <r>    5.4220    0.0000 </r>
       <r>    8.0103    0.0000 </r>
       <r>    8.0103    0.0000 </r>
       <r>    9.1567    0.0000 </r>
       <r>    9.1567    0.0000 </r>
       <r>    9.6576    0.0000 </r>
       <r>    9.6576    0.0000 </r>
       <r>   10.9965    0.0000 </r>
       <r>   10.9998    0.0000 </r>
      </set>
      <set comment="kpoint 12">
       <r>  -31.6621    1.0000 </r>
       <r>  -31.6621    1.0000 </r>
       <r>  -31.6614    1.0000 </r>
       <r>  -31.6614    1.0000 </r>
       <r>  -24.9690    1.0000 </r>
       <r>  -24.9690    1.0000 </r>
       <r>  -24.9666    1.0000 </r>
       <r>  -24.9666    1.0000 </r>
       <r>  -24.9652    1.0000 </r>
       <r>  -24.9652    1.0000 </r>
       <r>  -21.2806    1.0000 </r>
       <r>  -21.2806    1.0000 </r>
       <r>   -8.3803    1.0000 </r>
       <r>   -8.3803    1.0000 </r>
       <r>    0.0350    1.0000 </r>
       <r>    0.0350    1.0000 </r>
       <r>    1.6837    1.0000 </r>
       <r>    1.6837    1.0000 </r>
       <r>    5.3590    0.0000 </r>
       <r>    5.3590    0.0000 </r>
       <r>    8.1809    0.0000 </r>
       <r>    8.1809    0.0000 </r>
       <r>    8.9186    0.0000 </r>
       <r>    8.9186    0.0000 </r>
       <r>    9.3960    0.0000 </r>
       <r>    9.3960    0.0000 </r>
       <r>   11.0902    0.0000 </r>
       <r>   11.3743    0.0000 </r>
      </set>
      <set comment="kpoint 13">
       <r>  -31.6622    1.0000 </r>
       <r>  -31.6622    1.0000 </r>
       <r>  -31.6617    1.0000 </r>
       <r>  -31.6617    1.0000 </r>
       <r>  -24.9688    1.0000 </r>
       <r>  -24.9688    1.0000 </r>
       <r>  -24.9678    1.0000 </r>
       <r>  -24.9678    1.0000 </r>
       <r>  -24.9661    1.0000 </r>
       <r>  -24.9661    1.0000 </r>
       <r>  -21.2973    1.0000 </r>
       <r>  -21.2973    1.0000 </r>
       <r>   -8.3166    1.0000 </r>
       <r>   -8.3166    1.0000 </r>
       <r>    0.4332    1.0000 </r>
       <r>    0.4332    1.0000 </r>
       <r>    1.8528    1.0000 </r>
       <r>    1.8528    1.0000 </r>
       <r>    4.9856   -0.0000 </r>
       <r>    4.9856   -0.0000 </r>
       <r>    8.1630    0.0000 </r>
       <r>    8.1630    0.0000 </r>
       <r>    8.8788    0.0000 </r>
       <r>    8.8788    0.0000 </r>
       <r>    9.6639    0.0000 </r>
       <r>    9.6639    0.0000 </r>
       <r>   10.5125    0.0000 </r>
       <r>   10.5126    0.0000 </r>
      </set>
      <set comment="kpoint 14">
       <r>  -31.6624    1.0000 </r>
       <r>  -31.6624    1.0000 </r>
       <r>  -31.6621    1.0000 </r>
       <r>  -31.6621    1.0000 </r>
       <r>  -24.9692    1.0000 </r>
       <r>  -24.9692    1.0000 </r>
       <r>  -24.9684    1.0000 </r>
       <r>  -24.9683    1.0000 </r>
       <r>  -24.9672    1.0000 </r>
       <r>  -24.9672    1.0000 </r>
       <r>  -21.3145    1.0000 </r>
       <r>  -21.3145    1.0000 </r>
       <r>   -8.2502    1.0000 </r>
       <r>   -8.2502    1.0000 </r>
       <r>    0.9905    1.0000 </r>
       <r>    0.9905    1.0000 </r>
       <r>    2.0673    1.0007 </r>
       <r>    2.0673    1.0007 </r>
       <r>    4.2112   -0.0000 </r>
       <r>    4.2112   -0.0000 </r>
       <r>    8.3031    0.0000 </r>
       <r>    8.3031    0.0000 </r>
       <r>    9.3754    0.0000 </r>
       <r>    9.3754    0.0000 </r>
       <r>    9.8245    0.0000 </r>
       <r>    9.8245    0.0000 </r>
       <r>   10.4016    0.0000 </r>
       <r>   10.4041    0.0000 </r>
      </set>
      <set comment="kpoint 15">
       <r>  -31.6623    1.0000 </r>
       <r>  -31.6623    1.0000 </r>
       <r>  -31.6619    1.0000 </r>
       <r>  -31.6619    1.0000 </r>
       <r>  -24.9692    1.0000 </r>
       <r>  -24.9692    1.0000 </r>
       <r>  -24.9680    1.0000 </r>
       <r>  -24.9680    1.0000 </r>
       <r>  -24.9668    1.0000 </r>
       <r>  -24.9668    1.0000 </r>
       <r>  -21.3078    1.0000 </r>
       <r>  -21.3078    1.0000 </r>
       <r>   -8.2764    1.0000 </r>
       <r>   -8.2764    1.0000 </r>
       <r>    0.7007    1.0000 </r>
       <r>    0.7007    1.0000 </r>
       <r>    2.0990    1.0028 </r>
       <r>    2.0990    1.0028 </r>
       <r>    4.4223   -0.0000 </r>
       <r>    4.4223   -0.0000 </r>
       <r>    8.3305    0.0000 </r>
       <r>    8.3305    0.0000 </r>
       <r>    9.4425    0.0000 </r>
       <r>    9.4425    0.0000 </r>
       <r>    9.7757    0.0000 </r>
       <r>    9.7758    0.0000 </r>
       <r>   10.4772    0.0000 </r>
       <r>   10.9592    0.0000 </r>
      </set>
      <set comment="kpoint 16">
       <r>  -31.6623    1.0000 </r>
       <r>  -31.6623    1.0000 </r>
       <r>  -31.6620    1.0000 </r>
       <r>  -31.6620    1.0000 </r>
       <r>  -24.9691    1.0000 </r>
       <r>  -24.9691    1.0000 </r>
       <r>  -24.9680    1.0000 </r>
       <r>  -24.9680    1.0000 </r>
       <r>  -24.9669    1.0000 </r>
       <r>  -24.9669    1.0000 </r>
       <r>  -21.3090    1.0000 </r>
       <r>  -21.3090    1.0000 </r>
       <r>   -8.2711    1.0000 </r>
       <r>   -8.2711    1.0000 </r>
       <r>    0.8146    1.0000 </r>
       <r>    0.8146    1.0000 </r>
       <r>    1.9511    1.0000 </r>
       <r>    1.9511    1.0000 </r>
       <r>    4.5295   -0.0000 </r>
       <r>    4.5295   -0.0000 </r>
       <r>    8.0639    0.0000 </r>
       <r>    8.0639    0.0000 </r>
       <r>    9.1175    0.0000 </r>
       <r>    9.1175    0.0000 </r>
       <r>    9.8435    0.0000 </r>
       <r>    9.8435    0.0000 </r>
       <r>   10.4124    0.0000 </r>
       <r>   10.4125    0.0000 </r>
      </set>
      <set comment="kpoint 17">
       <r>  -31.6622    1.0000 </r>
       <r>  -31.6622    1.0000 </r>
       <r>  -31.6619    1.0000 </r>
       <r>  -31.6619    1.0000 </r>
       <r>  -24.9691    1.0000 </r>
       <r>  -24.9691    1.0000 </r>
       <r>  -24.9676    1.0000 </r>
       <r>  -24.9676    1.0000 </r>
       <r>  -24.9664    1.0000 </r>
       <r>  -24.9664    1.0000 </r>
       <r>  -21.3003    1.0000 </r>
       <r>  -21.3003    1.0000 </r>
       <r>   -8.3036    1.0000 </r>
       <r>   -8.3036    1.0000 </r>
       <r>    0.6257    1.0000 </r>
       <r>    0.6257    1.0000 </r>
       <r>    1.7149    1.0000 </r>
       <r>    1.7149    1.0000 </r>
       <r>    5.0152   -0.0000 </r>
       <r>    5.0152   -0.0000 </r>
       <r>    7.5748    0.0000 </r>
       <r>    7.5748    0.0000 </r>
       <r>    8.6130    0.0000 </r>
       <r>    8.6130    0.0000 </r>
       <r>    9.9971    0.0000 </r>
       <r>    9.9971    0.0000 </r>
       <r>   10.7954    0.0000 </r>
       <r>   10.7954    0.0000 </r>
      </set>
      <set comment="kpoint 18">
       <r>  -31.6620    1.0000 </r>
       <r>  -31.6620    1.0000 </r>
       <r>  -31.6616    1.0000 </r>
       <r>  -31.6616    1.0000 </r>
       <r>  -24.9688    1.0000 </r>
       <r>  -24.9688    1.0000 </r>
       <r>  -24.9673    1.0000 </r>
       <r>  -24.9673    1.0000 </r>
       <r>  -24.9652    1.0000 </r>
       <r>  -24.9652    1.0000 </r>
       <r>  -21.2856    1.0000 </r>
       <r>  -21.2856    1.0000 </r>
       <r>   -8.3583    1.0000 </r>
       <r>   -8.3583    1.0000 </r>
       <r>    0.2895    1.0000 </r>
       <r>    0.2895    1.0000 </r>
       <r>    1.4967    1.0000 </r>
       <r>    1.4967    1.0000 </r>
       <r>    5.5285    0.0000 </r>
       <r>    5.5285    0.0000 </r>
       <r>    7.4080    0.0000 </r>
       <r>    7.4080    0.0000 </r>
       <r>    8.1890    0.0000 </r>
       <r>    8.1890    0.0000 </r>
       <r>   10.2496    0.0000 </r>
       <r>   10.2496    0.0000 </r>
       <r>   11.2750    0.0000 </r>
       <r>   11.2750    0.0000 </r>
      </set>
      <set comment="kpoint 19">
       <r>  -31.6619    1.0000 </r>
       <r>  -31.6619    1.0000 </r>
       <r>  -31.6613    1.0000 </r>
       <r>  -31.6613    1.0000 </r>
       <r>  -24.9685    1.0000 </r>
       <r>  -24.9685    1.0000 </r>
       <r>  -24.9667    1.0000 </r>
       <r>  -24.9667    1.0000 </r>
       <r>  -24.9645    1.0000 </r>
       <r>  -24.9645    1.0000 </r>
       <r>  -21.2719    1.0000 </r>
       <r>  -21.2719    1.0000 </r>
       <r>   -8.4092    1.0000 </r>
       <r>   -8.4092    1.0000 </r>
       <r>    0.0294    1.0000 </r>
       <r>    0.0294    1.0000 </r>
       <r>    1.2721    1.0000 </r>
       <r>    1.2721    1.0000 </r>
       <r>    5.8747    0.0000 </r>
       <r>    5.8747    0.0000 </r>
       <r>    7.4487    0.0000 </r>
       <r>    7.4487    0.0000 </r>
       <r>    8.3415    0.0000 </r>
       <r>    8.3415    0.0000 </r>
       <r>   10.1222    0.0000 </r>
       <r>   10.1222    0.0000 </r>
       <r>   11.5621    0.0000 </r>
       <r>   11.5622    0.0000 </r>
      </set>
[...]
       <r>     1.1781     0.0000     0.0000 </r>
       <r>     1.3428     0.0000     0.0000 </r>
       <r>     1.5075     0.0000     0.0000 </r>
       <r>     1.6722     0.0000     0.0000 </r>
       <r>     1.8370     0.0000     0.0000 </r>
       <r>     2.0017     0.0000     0.0000 </r>
       <r>     2.1664     0.0000     0.0000 </r>
       <r>     2.3312     0.0000     0.0000 </r>
       <r>     2.4959     0.0000     0.0000 </r>
       <r>     2.6606     0.0000     0.0000 </r>
       <r>     2.8253     0.0000     0.0000 </r>
       <r>     2.9901     0.0000     0.0000 </r>
       <r>     3.1548     0.0000     0.0000 </r>
       <r>     3.3195     0.0000     0.0000 </r>
       <r>     3.4842     0.0000     0.0000 </r>
       <r>     3.6490     0.0000     0.0000 </r>
       <r>     3.8137     0.0000     0.0000 </r>
       <r>     3.9784     0.0000     0.0000 </r>
       <r>     4.1432     0.0000     0.0000 </r>
       <r>     4.3079     0.0000     0.0000 </r>
       <r>     4.4726     0.0000     0.0000 </r>
       <r>     4.6373     0.0000     0.0000 </r>
       <r>     4.8021     0.0000     0.0000 </r>
       <r>     4.9668     0.0000     0.0000 </r>
       <r>     5.1315     0.0000     0.0000 </r>
       <r>     5.2962     0.0000     0.0000 </r>
       <r>     5.4610     0.0000     0.0000 </r>
       <r>     5.6257     0.0000     0.0000 </r>
       <r>     5.7904     0.0000     0.0000 </r>
       <r>     5.9552     0.0000     0.0000 </r>
       <r>     6.1199     0.0000     0.0000 </r>
       <r>     6.2846     0.0000     0.0000 </r>
       <r>     6.4493     0.0000     0.0000 </r>
       <r>     6.6141     0.0000     0.0000 </r>
       <r>     6.7788     0.0000     0.0000 </r>
       <r>     6.9435     0.0000     0.0000 </r>
       <r>     7.1082     0.0000     0.0000 </r>
       <r>     7.2730     0.0000     0.0000 </r>
       <r>     7.4377     0.0000     0.0000 </r>
       <r>     7.6024     0.0000     0.0000 </r>
       <r>     7.7671     0.0000     0.0000 </r>
       <r>     7.9319     0.0000     0.0000 </r>
       <r>     8.0966     0.0000     0.0000 </r>
       <r>     8.2613     0.0000     0.0000 </r>
       <r>     8.4261     0.0000     0.0000 </r>
       <r>     8.5908     0.0000     0.0000 </r>
       <r>     8.7555     0.0000     0.0000 </r>
       <r>     8.9202     0.0000     0.0000 </r>
       <r>     9.0850     0.0000     0.0000 </r>
       <r>     9.2497     0.0000     0.0000 </r>
       <r>     9.4144     0.0000     0.0000 </r>
       <r>     9.5791     0.0000     0.0000 </r>
       <r>     9.7439     0.0000     0.0000 </r>
       <r>     9.9086     0.0000     0.0000 </r>
       <r>    10.0733     0.0000     0.0000 </r>
       <r>    10.2381     0.0000     0.0000 </r>
       <r>    10.4028     0.0000     0.0000 </r>
       <r>    10.5675     0.0000     0.0000 </r>
       <r>    10.7322     0.0000     0.0000 </r>
       <r>    10.8970     0.0000     0.0000 </r>
       <r>    11.0617     0.0000     0.0000 </r>
       <r>    11.2264     0.0000     0.0000 </r>
       <r>    11.3911     0.0000     0.0000 </r>
       <r>    11.5559     0.0000     0.0000 </r>
       <r>    11.7206     0.0000     0.0000 </r>
       <r>    11.8853     0.0000     0.0000 </r>
       <r>    12.0500     0.0000     0.0000 </r>
       <r>    12.2148     0.0000     0.0000 </r>
       <r>    12.3795     0.0000     0.0000 </r>
       <r>    12.5442     0.0000     0.0000 </r>
       <r>    12.7090     0.0000     0.0000 </r>
       <r>    12.8737     0.0000     0.0000 </r>
       <r>    13.0384     0.0000     0.0000 </r>
       <r>    13.2031     0.0000     0.0000 </r>
       <r>    13.3679     0.0000     0.0000 </r>
       <r>    13.5326     0.0000     0.0000 </r>
       <r>    13.6973     0.0000     0.0000 </r>
       <r>    13.8620     0.0000     0.0000 </r>
       <r>    14.0268     0.0000     0.0000 </r>
       <r>    14.1915     0.0000     0.0000 </r>
       <r>    14.3562     0.0000     0.0000 </r>
       <r>    14.5210     0.0000     0.0000 </r>
       <r>    14.6857     0.0000     0.0000 </r>
       <r>    14.8504     0.0000     0.0000 </r>
       <r>    15.0151     0.0000     0.0000 </r>
       <r>    15.1799     0.0000     0.0000 </r>
       <r>    15.3446     0.0000     0.0000 </r>
       <r>    15.5093     0.0000     0.0000 </r>
      </set>
      <set comment="spin 4">
       <r>   -33.9088     0.0000     0.0000 </r>
       <r>   -33.7441     0.0000     0.0000 </r>
       <r>   -33.5793     0.0000     0.0000 </r>
       <r>   -33.4146     0.0000     0.0000 </r>
       <r>   -33.2499     0.0000     0.0000 </r>
       <r>   -33.0851     0.0000     0.0000 </r>
       <r>   -32.9204     0.0000     0.0000 </r>
       <r>   -32.7557     0.0000     0.0000 </r>
       <r>   -32.5910     0.0000     0.0000 </r>
       <r>   -32.4262     0.0000     0.0000 </r>
       <r>   -32.2615     0.0000     0.0000 </r>
       <r>   -32.0968     0.0000     0.0000 </r>
       <r>   -31.9321     0.0000     0.0000 </r>
       <r>   -31.7673     0.0000     0.0000 </r>
       <r>   -31.6026     0.0000     0.0000 </r>
       <r>   -31.4379     0.0000     0.0000 </r>
       <r>   -31.2731     0.0000     0.0000 </r>
       <r>   -31.1084     0.0000     0.0000 </r>
       <r>   -30.9437     0.0000     0.0000 </r>
       <r>   -30.7790     0.0000     0.0000 </r>
       <r>   -30.6142     0.0000     0.0000 </r>
       <r>   -30.4495     0.0000     0.0000 </r>
       <r>   -30.2848     0.0000     0.0000 </r>
       <r>   -30.1201     0.0000     0.0000 </r>
       <r>   -29.9553     0.0000     0.0000 </r>
       <r>   -29.7906     0.0000     0.0000 </r>
       <r>   -29.6259     0.0000     0.0000 </r>
       <r>   -29.4612     0.0000     0.0000 </r>
       <r>   -29.2964     0.0000     0.0000 </r>
       <r>   -29.1317     0.0000     0.0000 </r>
       <r>   -28.9670     0.0000     0.0000 </r>
       <r>   -28.8022     0.0000     0.0000 </r>
       <r>   -28.6375     0.0000     0.0000 </r>
       <r>   -28.4728     0.0000     0.0000 </r>
       <r>   -28.3081     0.0000     0.0000 </r>
       <r>   -28.1433     0.0000     0.0000 </r>
       <r>   -27.9786     0.0000     0.0000 </r>
       <r>   -27.8139     0.0000     0.0000 </r>
       <r>   -27.6492     0.0000     0.0000 </r>
       <r>   -27.4844     0.0000     0.0000 </r>
       <r>   -27.3197     0.0000     0.0000 </r>
       <r>   -27.1550     0.0000     0.0000 </r>
       <r>   -26.9902     0.0000     0.0000 </r>
       <r>   -26.8255     0.0000     0.0000 </r>
       <r>   -26.6608     0.0000     0.0000 </r>
       <r>   -26.4961     0.0000     0.0000 </r>
       <r>   -26.3313     0.0000     0.0000 </r>
       <r>   -26.1666     0.0000     0.0000 </r>
       <r>   -26.0019     0.0000     0.0000 </r>
       <r>   -25.8372     0.0000     0.0000 </r>
       <r>   -25.6724     0.0000     0.0000 </r>
       <r>   -25.5077     0.0000     0.0000 </r>
       <r>   -25.3430     0.0000     0.0000 </r>
       <r>   -25.1782     0.0000     0.0000 </r>
       <r>   -25.0135     0.0000     0.0000 </r>
       <r>   -24.8488     0.0000     0.0000 </r>
       <r>   -24.6841     0.0000     0.0000 </r>
       <r>   -24.5193     0.0000     0.0000 </r>
       <r>   -24.3546     0.0000     0.0000 </r>
       <r>   -24.1899     0.0000     0.0000 </r>
       <r>   -24.0252     0.0000     0.0000 </r>
       <r>   -23.8604     0.0000     0.0000 </r>
       <r>   -23.6957     0.0000     0.0000 </r>
       <r>   -23.5310     0.0000     0.0000 </r>
       <r>   -23.3663     0.0000     0.0000 </r>
       <r>   -23.2015     0.0000     0.0000 </r>
       <r>   -23.0368     0.0000     0.0000 </r>
       <r>   -22.8721     0.0000     0.0000 </r>
       <r>   -22.7073     0.0000     0.0000 </r>
       <r>   -22.5426     0.0000     0.0000 </r>
       <r>   -22.3779     0.0000     0.0000 </r>
       <r>   -22.2132     0.0000     0.0000 </r>
       <r>   -22.0484     0.0000     0.0000 </r>
       <r>   -21.8837     0.0000     0.0000 </r>
       <r>   -21.7190     0.0000     0.0000 </r>
       <r>   -21.5543     0.0000     0.0000 </r>
       <r>   -21.3895     0.0000     0.0000 </r>
       <r>   -21.2248     0.0000     0.0000 </r>
       <r>   -21.0601     0.0000     0.0000 </r>
       <r>   -20.8953     0.0000     0.0000 </r>
       <r>   -20.7306     0.0000     0.0000 </r>
       <r>   -20.5659     0.0000     0.0000 </r>
       <r>   -20.4012     0.0000     0.0000 </r>
       <r>   -20.2364     0.0000     0.0000 </r>
       <r>   -20.0717     0.0000     0.0000 </r>
       <r>   -19.9070     0.0000     0.0000 </r>
       <r>   -19.7423     0.0000     0.0000 </r>
       <r>   -19.5775     0.0000     0.0000 </r>
       <r>   -19.4128     0.0000     0.0000 </r>
       <r>   -19.2481     0.0000     0.0000 </r>
       <r>   -19.0834     0.0000     0.0000 </r>
       <r>   -18.9186     0.0000     0.0000 </r>
       <r>   -18.7539     0.0000     0.0000 </r>
       <r>   -18.5892     0.0000     0.0000 </r>
       <r>   -18.4244     0.0000     0.0000 </r>
       <r>   -18.2597     0.0000     0.0000 </r>
       <r>   -18.0950     0.0000     0.0000 </r>
       <r>   -17.9303     0.0000     0.0000 </r>
       <r>   -17.7655     0.0000     0.0000 </r>
       <r>   -17.6008     0.0000     0.0000 </r>
       <r>   -17.4361     0.0000     0.0000 </r>
       <r>   -17.2714     0.0000     0.0000 </r>
       <r>   -17.1066     0.0000     0.0000 </r>
       <r>   -16.9419     0.0000     0.0000 </r>
       <r>   -16.7772     0.0000     0.0000 </r>
       <r>   -16.6124     0.0000     0.0000 </r>
       <r>   -16.4477     0.0000     0.0000 </r>
       <r>   -16.2830     0.0000     0.0000 </r>
       <r>   -16.1183     0.0000     0.0000 </r>
       <r>   -15.9535     0.0000     0.0000 </r>
       <r>   -15.7888     0.0000     0.0000 </r>
       <r>   -15.6241     0.0000     0.0000 </r>
       <r>   -15.4594     0.0000     0.0000 </r>
       <r>   -15.2946     0.0000     0.0000 </r>
       <r>   -15.1299     0.0000     0.0000 </r>
       <r>   -14.9652     0.0000     0.0000 </r>
       <r>   -14.8004     0.0000     0.0000 </r>
       <r>   -14.6357     0.0000     0.0000 </r>
       <r>   -14.4710     0.0000     0.0000 </r>
       <r>   -14.3063     0.0000     0.0000 </r>
       <r>   -14.1415     0.0000     0.0000 </r>
       <r>   -13.9768     0.0000     0.0000 </r>
       <r>   -13.8121     0.0000     0.0000 </r>
       <r>   -13.6474     0.0000     0.0000 </r>
       <r>   -13.4826     0.0000     0.0000 </r>
       <r>   -13.3179     0.0000     0.0000 </r>
       <r>   -13.1532     0.0000     0.0000 </r>
       <r>   -12.9885     0.0000     0.0000 </r>
       <r>   -12.8237     0.0000     0.0000 </r>
       <r>   -12.6590     0.0000     0.0000 </r>
       <r>   -12.4943     0.0000     0.0000 </r>
       <r>   -12.3295     0.0000     0.0000 </r>
       <r>   -12.1648     0.0000     0.0000 </r>
       <r>   -12.0001     0.0000     0.0000 </r>
       <r>   -11.8354     0.0000     0.0000 </r>
       <r>   -11.6706     0.0000     0.0000 </r>
       <r>   -11.5059     0.0000     0.0000 </r>
       <r>   -11.3412     0.0000     0.0000 </r>
       <r>   -11.1765     0.0000     0.0000 </r>
       <r>   -11.0117     0.0000     0.0000 </r>
       <r>   -10.8470     0.0000     0.0000 </r>
       <r>   -10.6823     0.0000     0.0000 </r>
       <r>   -10.5175     0.0000     0.0000 </r>
       <r>   -10.3528     0.0000     0.0000 </r>
       <r>   -10.1881     0.0000     0.0000 </r>
       <r>   -10.0234     0.0000     0.0000 </r>
       <r>    -9.8586     0.0000     0.0000 </r>
       <r>    -9.6939     0.0000     0.0000 </r>
       <r>    -9.5292     0.0000     0.0000 </r>
       <r>    -9.3645     0.0000     0.0000 </r>
       <r>    -9.1997     0.0000     0.0000 </r>
       <r>    -9.0350     0.0000     0.0000 </r>
       <r>    -8.8703     0.0000     0.0000 </r>
       <r>    -8.7056     0.0000     0.0000 </r>
       <r>    -8.5408     0.0000     0.0000 </r>
       <r>    -8.3761     0.0000     0.0000 </r>
       <r>    -8.2114     0.0000     0.0000 </r>
       <r>    -8.0466     0.0000     0.0000 </r>
       <r>    -7.8819     0.0000     0.0000 </r>
       <r>    -7.7172     0.0000     0.0000 </r>
       <r>    -7.5525     0.0000     0.0000 </r>
       <r>    -7.3877     0.0000     0.0000 </r>
       <r>    -7.2230     0.0000     0.0000 </r>
       <r>    -7.0583     0.0000     0.0000 </r>
       <r>    -6.8936     0.0000     0.0000 </r>
       <r>    -6.7288     0.0000     0.0000 </r>
       <r>    -6.5641     0.0000     0.0000 </r>
       <r>    -6.3994     0.0000     0.0000 </r>
       <r>    -6.2346     0.0000     0.0000 </r>
       <r>    -6.0699     0.0000     0.0000 </r>
       <r>    -5.9052     0.0000     0.0000 </r>
       <r>    -5.7405     0.0000     0.0000 </r>
       <r>    -5.5757     0.0000     0.0000 </r>
       <r>    -5.4110     0.0000     0.0000 </r>
       <r>    -5.2463     0.0000     0.0000 </r>
       <r>    -5.0816     0.0000     0.0000 </r>
       <r>    -4.9168     0.0000     0.0000 </r>
       <r>    -4.7521     0.0000     0.0000 </r>
       <r>    -4.5874     0.0000     0.0000 </r>
       <r>    -4.4226     0.0000     0.0000 </r>
       <r>    -4.2579     0.0000     0.0000 </r>
       <r>    -4.0932     0.0000     0.0000 </r>
       <r>    -3.9285     0.0000     0.0000 </r>
       <r>    -3.7637     0.0000     0.0000 </r>
       <r>    -3.5990     0.0000     0.0000 </r>
       <r>    -3.4343     0.0000     0.0000 </r>
       <r>    -3.2696     0.0000     0.0000 </r>
       <r>    -3.1048     0.0000     0.0000 </r>
       <r>    -2.9401     0.0000     0.0000 </r>
       <r>    -2.7754     0.0000     0.0000 </r>
       <r>    -2.6107     0.0000     0.0000 </r>
       <r>    -2.4459     0.0000     0.0000 </r>
       <r>    -2.2812     0.0000     0.0000 </r>
       <r>    -2.1165     0.0000     0.0000 </r>
       <r>    -1.9517     0.0000     0.0000 </r>
       <r>    -1.7870     0.0000     0.0000 </r>
       <r>    -1.6223     0.0000     0.0000 </r>
       <r>    -1.4576     0.0000     0.0000 </r>
       <r>    -1.2928     0.0000     0.0000 </r>
       <r>    -1.1281     0.0000     0.0000 </r>
       <r>    -0.9634     0.0000     0.0000 </r>
       <r>    -0.7987     0.0000     0.0000 </r>
       <r>    -0.6339     0.0000     0.0000 </r>
       <r>    -0.4692     0.0000     0.0000 </r>
       <r>    -0.3045     0.0000     0.0000 </r>
       <r>    -0.1397     0.0000     0.0000 </r>
       <r>     0.0250     0.0000     0.0000 </r>
       <r>     0.1897     0.0000     0.0000 </r>
       <r>     0.3544     0.0000     0.0000 </r>
       <r>     0.5192     0.0000     0.0000 </r>
       <r>     0.6839     0.0000     0.0000 </r>
       <r>     0.8486     0.0000     0.0000 </r>
       <r>     1.0133     0.0000     0.0000 </r>
       <r>     1.1781     0.0000     0.0000 </r>
       <r>     1.3428     0.0000     0.0000 </r>
       <r>     1.5075     0.0000     0.0000 </r>
       <r>     1.6722     0.0000     0.0000 </r>
       <r>     1.8370     0.0000     0.0000 </r>
       <r>     2.0017     0.0000     0.0000 </r>
       <r>     2.1664     0.0000     0.0000 </r>
       <r>     2.3312     0.0000     0.0000 </r>
       <r>     2.4959     0.0000     0.0000 </r>
       <r>     2.6606     0.0000     0.0000 </r>
       <r>     2.8253     0.0000     0.0000 </r>
       <r>     2.9901     0.0000     0.0000 </r>
       <r>     3.1548     0.0000     0.0000 </r>
       <r>     3.3195     0.0000     0.0000 </r>
       <r>     3.4842     0.0000     0.0000 </r>
       <r>     3.6490     0.0000     0.0000 </r>
       <r>     3.8137     0.0000     0.0000 </r>
       <r>     3.9784     0.0000     0.0000 </r>
       <r>     4.1432     0.0000     0.0000 </r>
       <r>     4.3079     0.0000     0.0000 </r>
       <r>     4.4726     0.0000     0.0000 </r>
       <r>     4.6373     0.0000     0.0000 </r>
       <r>     4.8021     0.0000     0.0000 </r>
       <r>     4.9668     0.0000     0.0000 </r>
       <r>     5.1315     0.0000     0.0000 </r>
       <r>     5.2962     0.0000     0.0000 </r>
       <r>     5.4610     0.0000     0.0000 </r>
       <r>     5.6257     0.0000     0.0000 </r>
       <r>     5.7904     0.0000     0.0000 </r>
       <r>     5.9552     0.0000     0.0000 </r>
       <r>     6.1199     0.0000     0.0000 </r>
       <r>     6.2846     0.0000     0.0000 </r>
       <r>     6.4493     0.0000     0.0000 </r>
       <r>     6.6141     0.0000     0.0000 </r>
       <r>     6.7788     0.0000     0.0000 </r>
       <r>     6.9435     0.0000     0.0000 </r>
       <r>     7.1082     0.0000     0.0000 </r>
       <r>     7.2730     0.0000     0.0000 </r>
       <r>     7.4377     0.0000     0.0000 </r>
       <r>     7.6024     0.0000     0.0000 </r>
       <r>     7.7671     0.0000     0.0000 </r>
       <r>     7.9319     0.0000     0.0000 </r>
       <r>     8.0966     0.0000     0.0000 </r>
       <r>     8.2613     0.0000     0.0000 </r>
       <r>     8.4261     0.0000     0.0000 </r>
       <r>     8.5908     0.0000     0.0000 </r>
       <r>     8.7555     0.0000     0.0000 </r>
       <r>     8.9202     0.0000     0.0000 </r>
       <r>     9.0850     0.0000     0.0000 </r>
       <r>     9.2497     0.0000     0.0000 </r>
       <r>     9.4144     0.0000     0.0000 </r>
       <r>     9.5791     0.0000     0.0000 </r>
       <r>     9.7439     0.0000     0.0000 </r>
       <r>     9.9086     0.0000     0.0000 </r>
       <r>    10.0733     0.0000     0.0000 </r>
       <r>    10.2381     0.0000     0.0000 </r>
       <r>    10.4028     0.0000     0.0000 </r>
       <r>    10.5675     0.0000     0.0000 </r>
       <r>    10.7322     0.0000     0.0000 </r>
       <r>    10.8970     0.0000     0.0000 </r>
       <r>    11.0617     0.0000     0.0000 </r>
       <r>    11.2264     0.0000     0.0000 </r>
       <r>    11.3911     0.0000     0.0000 </r>
       <r>    11.5559     0.0000     0.0000 </r>
       <r>    11.7206     0.0000     0.0000 </r>
       <r>    11.8853     0.0000     0.0000 </r>
       <r>    12.0500     0.0000     0.0000 </r>
       <r>    12.2148     0.0000     0.0000 </r>
       <r>    12.3795     0.0000     0.0000 </r>
       <r>    12.5442     0.0000     0.0000 </r>
       <r>    12.7090     0.0000     0.0000 </r>
       <r>    12.8737     0.0000     0.0000 </r>
       <r>    13.0384     0.0000     0.0000 </r>
       <r>    13.2031     0.0000     0.0000 </r>
       <r>    13.3679     0.0000     0.0000 </r>
       <r>    13.5326     0.0000     0.0000 </r>
       <r>    13.6973     0.0000     0.0000 </r>
       <r>    13.8620     0.0000     0.0000 </r>
       <r>    14.0268     0.0000     0.0000 </r>
       <r>    14.1915     0.0000     0.0000 </r>
       <r>    14.3562     0.0000     0.0000 </r>
       <r>    14.5210     0.0000     0.0000 </r>
       <r>    14.6857     0.0000     0.0000 </r>
       <r>    14.8504     0.0000     0.0000 </r>
       <r>    15.0151     0.0000     0.0000 </r>
       <r>    15.1799     0.0000     0.0000 </r>
       <r>    15.3446     0.0000     0.0000 </r>
       <r>    15.5093     0.0000     0.0000 </r>
      </set>
     </set>
    </array>
   </total>
  </dos>
 </calculation>
 <structure name="finalpos" >
  <crystal>
   <varray name="basis" >
    <v>       4.58973550       0.00000000       0.00000000 </v>
    <v>       2.29486775       3.97482754      -0.00000000 </v>
    <v>       2.29486775       1.32494251       3.74750334 </v>
   </varray>
   <i name="volume">     68.36722887 </i>
   <varray name="rec_basis" >
    <v>       0.21787748      -0.12579162      -0.08894811 </v>
    <v>       0.00000000       0.25158324      -0.08894811 </v>
    <v>      -0.00000000       0.00000000       0.26684433 </v>
   </varray>
  </crystal>
  <varray name="positions" >
   <v>       0.00000000       0.00000000       0.00000000 </v>
  </varray>
  <varray name="velocities" >
   <v>       0.00000000       0.00000000       0.00000000 </v>
  </varray>
 </structure>
</modeling>
