Og_FCC                                  
           1
     4.589735    0.000000    0.000000
     2.294868    3.974828   -0.000000
     2.294868    1.324943    3.747503
   Og
   1
Direct configuration=     1
   0.00000000  0.00000000  0.00000000
