   1   1   0   0
  0.6083477E+02  0.4414576E-09  0.4414576E-09  0.4414576E-09  0.1000000E-15
  1.000000000000000E-004
  CAR 
 Og_FCC                                  
    152.92104172    -53.13249373  301     -0.58884219      1.00000000
    -53.132  0.0000E+00  0.0000E+00
    -52.446  0.0000E+00  0.0000E+00
    -51.759  0.0000E+00  0.0000E+00
    -51.072  0.0000E+00  0.0000E+00
    -50.385  0.0000E+00  0.0000E+00
    -49.698  0.0000E+00  0.0000E+00
    -49.011  0.0000E+00  0.0000E+00
    -48.325  0.0000E+00  0.0000E+00
    -47.638  0.0000E+00  0.0000E+00
    -46.951  0.0000E+00  0.0000E+00
    -46.264  0.0000E+00  0.0000E+00
    -45.577  0.0000E+00  0.0000E+00
    -44.890  0.0000E+00  0.0000E+00
    -44.204  0.0000E+00  0.0000E+00
    -43.517  0.5824E+01  0.4000E+01
    -42.830  0.0000E+00  0.4000E+01
    -42.143  0.0000E+00  0.4000E+01
    -41.456  0.0000E+00  0.4000E+01
    -40.769  0.0000E+00  0.4000E+01
    -40.082  0.0000E+00  0.4000E+01
    -39.396  0.1491E+01  0.5024E+01
    -38.709  0.0000E+00  0.1000E+02
    -38.022  0.0000E+00  0.1000E+02
    -37.335  0.0000E+00  0.1000E+02
    -36.648  0.0000E+00  0.1000E+02
    -35.961  0.0000E+00  0.1000E+02
    -35.275  0.0000E+00  0.1000E+02
    -34.588  0.0000E+00  0.1000E+02
    -33.901  0.0000E+00  0.1000E+02
    -33.214  0.0000E+00  0.1000E+02
    -32.527  0.0000E+00  0.1000E+02
    -31.840  0.0000E+00  0.1000E+02
    -31.153  0.0000E+00  0.1000E+02
    -30.467  0.0000E+00  0.1000E+02
    -29.780  0.0000E+00  0.1000E+02
    -29.093  0.0000E+00  0.1000E+02
    -28.406  0.0000E+00  0.1000E+02
    -27.719  0.0000E+00  0.1000E+02
    -27.032  0.0000E+00  0.1000E+02
    -26.346  0.0000E+00  0.1000E+02
    -25.659  0.0000E+00  0.1000E+02
    -24.972  0.0000E+00  0.1000E+02
    -24.285  0.0000E+00  0.1000E+02
    -23.598  0.0000E+00  0.1000E+02
    -22.911  0.0000E+00  0.1000E+02
    -22.224  0.0000E+00  0.1000E+02
    -21.538  0.0000E+00  0.1000E+02
    -20.851  0.0000E+00  0.1000E+02
    -20.164  0.0000E+00  0.1000E+02
    -19.477  0.0000E+00  0.1000E+02
    -18.790  0.0000E+00  0.1000E+02
    -18.103  0.0000E+00  0.1000E+02
    -17.417  0.0000E+00  0.1000E+02
    -16.730  0.2911E+01  0.1200E+02
    -16.043  0.0000E+00  0.1200E+02
    -15.356  0.0000E+00  0.1200E+02
    -14.669  0.0000E+00  0.1200E+02
    -13.982  0.0000E+00  0.1200E+02
    -13.295  0.0000E+00  0.1200E+02
    -12.609  0.0000E+00  0.1200E+02
    -11.922  0.0000E+00  0.1200E+02
    -11.235  0.0000E+00  0.1200E+02
    -10.548  0.0000E+00  0.1200E+02
     -9.861  0.0000E+00  0.1200E+02
     -9.174  0.0000E+00  0.1200E+02
     -8.488  0.0000E+00  0.1200E+02
     -7.801  0.0000E+00  0.1200E+02
     -7.114  0.0000E+00  0.1200E+02
     -6.427  0.0000E+00  0.1200E+02
     -5.740  0.0000E+00  0.1200E+02
     -5.053  0.2585E+01  0.1378E+02
     -4.366  0.1348E-01  0.1400E+02
     -3.680  0.0000E+00  0.1400E+02
     -2.993  0.0000E+00  0.1400E+02
     -2.306  0.2081E+01  0.1543E+02
     -1.619  0.1476E+01  0.1676E+02
     -0.932  0.5009E+00  0.1797E+02
     -0.245  0.0000E+00  0.1800E+02
      0.441  0.0000E+00  0.1800E+02
      1.128  0.0000E+00  0.1800E+02
      1.815  0.0000E+00  0.1800E+02
      2.502  0.0000E+00  0.1800E+02
      3.189  0.1348E-01  0.1801E+02
      3.876  0.1078E+00  0.1808E+02
      4.562  0.9373E-01  0.1820E+02
      5.249  0.8218E+00  0.1895E+02
      5.936  0.5344E+00  0.1995E+02
      6.623  0.7951E+00  0.2085E+02
      7.310  0.1757E+00  0.2204E+02
      7.997  0.1124E+01  0.2310E+02
      8.684  0.1412E+01  0.2464E+02
      9.370  0.2960E+00  0.2559E+02
     10.057  0.8574E+00  0.2642E+02
     10.744  0.1290E+01  0.2763E+02
     11.431  0.4866E+00  0.2843E+02
     12.118  0.1276E+01  0.2975E+02
     12.805  0.6839E+00  0.3094E+02
     13.491  0.4913E+00  0.3176E+02
     14.178  0.1725E+01  0.3451E+02
     14.865  0.8617E+00  0.3548E+02
     15.552  0.6497E+00  0.3620E+02
     16.239  0.2675E+01  0.3851E+02
     16.926  0.3149E+01  0.4205E+02
     17.613  0.2133E+01  0.4409E+02
     18.299  0.6206E+00  0.4462E+02
     18.986  0.2027E+00  0.4562E+02
     19.673  0.1526E+01  0.4741E+02
     20.360  0.1872E+01  0.4894E+02
     21.047  0.1458E+01  0.5038E+02
     21.734  0.1418E+01  0.5221E+02
     22.420  0.1654E+01  0.5450E+02
     23.107  0.1618E+01  0.5660E+02
     23.794  0.6202E+00  0.5775E+02
     24.481  0.9806E+00  0.5867E+02
     25.168  0.1163E+01  0.6044E+02
     25.855  0.5830E+00  0.6148E+02
     26.542  0.9461E+00  0.6336E+02
     27.228  0.1846E+01  0.6507E+02
     27.915  0.1426E+01  0.6692E+02
     28.602  0.2644E+01  0.6993E+02
     29.289  0.1235E+01  0.7139E+02
     29.976  0.1014E+01  0.7249E+02
     30.663  0.9466E+00  0.7361E+02
     31.349  0.6595E+00  0.7503E+02
     32.036  0.2230E+01  0.7783E+02
     32.723  0.2083E+01  0.8019E+02
     33.410  0.1586E+01  0.8201E+02
     34.097  0.9283E+00  0.8352E+02
     34.784  0.1501E+01  0.8535E+02
     35.471  0.1497E+01  0.8706E+02
     36.157  0.1839E+01  0.8889E+02
     36.844  0.1263E+01  0.9011E+02
     37.531  0.1847E+01  0.9205E+02
     38.218  0.1776E+01  0.9416E+02
     38.905  0.1297E+01  0.9619E+02
     39.592  0.1063E+01  0.9795E+02
     40.278  0.1737E+01  0.9971E+02
     40.965  0.1883E+01  0.1020E+03
     41.652  0.1393E+01  0.1039E+03
     42.339  0.2430E+01  0.1065E+03
     43.026  0.7806E+00  0.1085E+03
     43.713  0.1456E+01  0.1098E+03
     44.400  0.2232E+01  0.1121E+03
     45.086  0.2288E+01  0.1144E+03
     45.773  0.1638E+01  0.1164E+03
     46.460  0.1020E+01  0.1185E+03
     47.147  0.1896E+01  0.1206E+03
     47.834  0.1645E+01  0.1220E+03
     48.521  0.2149E+01  0.1241E+03
     49.207  0.3154E+01  0.1268E+03
     49.894  0.2368E+01  0.1290E+03
     50.581  0.1641E+01  0.1311E+03
     51.268  0.1905E+01  0.1332E+03
     51.955  0.1836E+01  0.1354E+03
     52.642  0.1726E+01  0.1372E+03
     53.328  0.2460E+01  0.1396E+03
     54.015  0.1947E+01  0.1419E+03
     54.702  0.1997E+01  0.1438E+03
     55.389  0.2024E+01  0.1459E+03
     56.076  0.4965E+00  0.1474E+03
     56.763  0.2958E+01  0.1502E+03
     57.450  0.2493E+01  0.1526E+03
     58.136  0.1636E+01  0.1548E+03
     58.823  0.1377E+01  0.1572E+03
     59.510  0.1714E+01  0.1593E+03
     60.197  0.2532E+01  0.1615E+03
     60.884  0.2911E+01  0.1652E+03
     61.571  0.3191E+01  0.1681E+03
     62.257  0.1270E+01  0.1699E+03
     62.944  0.1021E+01  0.1713E+03
     63.631  0.1266E+01  0.1737E+03
     64.318  0.2468E+01  0.1764E+03
     65.005  0.2647E+01  0.1788E+03
     65.692  0.2152E+01  0.1813E+03
     66.379  0.1904E+01  0.1835E+03
     67.065  0.1211E+01  0.1861E+03
     67.752  0.2542E+01  0.1882E+03
     68.439  0.1762E+01  0.1903E+03
     69.126  0.2340E+01  0.1930E+03
     69.813  0.1774E+01  0.1950E+03
     70.500  0.1813E+01  0.1974E+03
     71.186  0.2823E+01  0.2011E+03
     71.873  0.1241E+01  0.2031E+03
     72.560  0.1810E+01  0.2058E+03
     73.247  0.1734E+01  0.2079E+03
     73.934  0.2262E+01  0.2107E+03
     74.621  0.1897E+01  0.2132E+03
     75.308  0.1871E+01  0.2155E+03
     75.994  0.3132E+01  0.2187E+03
     76.681  0.2061E+01  0.2209E+03
     77.368  0.1507E+01  0.2231E+03
     78.055  0.1826E+01  0.2258E+03
     78.742  0.3408E+01  0.2294E+03
     79.429  0.1834E+01  0.2316E+03
     80.115  0.1979E+01  0.2339E+03
     80.802  0.1922E+01  0.2365E+03
     81.489  0.2612E+01  0.2389E+03
     82.176  0.2326E+01  0.2417E+03
     82.863  0.1486E+01  0.2441E+03
     83.550  0.3094E+01  0.2480E+03
     84.237  0.1362E+01  0.2493E+03
     84.923  0.2418E+01  0.2525E+03
     85.610  0.2987E+01  0.2556E+03
     86.297  0.3124E+01  0.2590E+03
     86.984  0.1157E+01  0.2612E+03
     87.671  0.2830E+01  0.2640E+03
     88.358  0.3046E+01  0.2674E+03
     89.044  0.1752E+01  0.2693E+03
     89.731  0.4226E+01  0.2731E+03
     90.418  0.2777E+01  0.2757E+03
     91.105  0.1673E+01  0.2776E+03
     91.792  0.1264E+01  0.2798E+03
     92.479  0.2749E+01  0.2827E+03
     93.166  0.2762E+01  0.2855E+03
     93.852  0.2321E+01  0.2882E+03
     94.539  0.1778E+01  0.2915E+03
     95.226  0.2671E+01  0.2949E+03
     95.913  0.1544E+01  0.2980E+03
     96.600  0.2772E+01  0.3011E+03
     97.287  0.2984E+01  0.3042E+03
     97.973  0.3028E+01  0.3071E+03
     98.660  0.2044E+01  0.3089E+03
     99.347  0.1866E+01  0.3118E+03
    100.034  0.2274E+01  0.3145E+03
    100.721  0.1894E+01  0.3174E+03
    101.408  0.2231E+01  0.3197E+03
    102.095  0.3418E+01  0.3234E+03
    102.781  0.3298E+01  0.3260E+03
    103.468  0.3388E+01  0.3292E+03
    104.155  0.2043E+01  0.3318E+03
    104.842  0.3623E+01  0.3361E+03
    105.529  0.1882E+01  0.3388E+03
    106.216  0.2213E+01  0.3425E+03
    106.902  0.2407E+01  0.3456E+03
    107.589  0.2205E+01  0.3484E+03
    108.276  0.1746E+01  0.3507E+03
    108.963  0.3259E+01  0.3542E+03
    109.650  0.1939E+01  0.3562E+03
    110.337  0.2824E+01  0.3593E+03
    111.023  0.1642E+01  0.3617E+03
    111.710  0.2660E+01  0.3654E+03
    112.397  0.3024E+01  0.3686E+03
    113.084  0.3426E+01  0.3727E+03
    113.771  0.1572E+01  0.3753E+03
    114.458  0.3307E+01  0.3789E+03
    115.145  0.1905E+01  0.3815E+03
    115.831  0.3975E+01  0.3854E+03
    116.518  0.2237E+01  0.3884E+03
    117.205  0.3853E+01  0.3920E+03
    117.892  0.2712E+01  0.3952E+03
    118.579  0.2306E+01  0.3973E+03
    119.266  0.3064E+01  0.4005E+03
    119.952  0.1533E+01  0.4031E+03
    120.639  0.2512E+01  0.4058E+03
    121.326  0.3048E+01  0.4088E+03
    122.013  0.2497E+01  0.4124E+03
    122.700  0.3702E+01  0.4165E+03
    123.387  0.3387E+01  0.4198E+03
    124.074  0.3644E+01  0.4236E+03
    124.760  0.3364E+01  0.4270E+03
    125.447  0.2955E+01  0.4303E+03
    126.134  0.2926E+01  0.4332E+03
    126.821  0.2632E+01  0.4364E+03
    127.508  0.2836E+01  0.4398E+03
    128.195  0.2772E+01  0.4429E+03
    128.881  0.3280E+01  0.4463E+03
    129.568  0.1767E+01  0.4487E+03
    130.255  0.1865E+01  0.4509E+03
    130.942  0.3867E+01  0.4550E+03
    131.629  0.3395E+01  0.4578E+03
    132.316  0.3764E+01  0.4614E+03
    133.003  0.1885E+01  0.4657E+03
    133.689  0.4152E+01  0.4694E+03
    134.376  0.2960E+01  0.4730E+03
    135.063  0.2999E+01  0.4764E+03
    135.750  0.3342E+01  0.4801E+03
    136.437  0.3510E+01  0.4839E+03
    137.124  0.2714E+01  0.4867E+03
    137.810  0.2757E+01  0.4896E+03
    138.497  0.3318E+01  0.4930E+03
    139.184  0.4572E+01  0.4969E+03
    139.871  0.2425E+01  0.4997E+03
    140.558  0.2364E+01  0.5027E+03
    141.245  0.2653E+01  0.5060E+03
    141.932  0.1937E+01  0.5087E+03
    142.618  0.1395E+01  0.5108E+03
    143.305  0.3397E+00  0.5116E+03
    143.992  0.0000E+00  0.5120E+03
    144.679  0.0000E+00  0.5120E+03
    145.366  0.0000E+00  0.5120E+03
    146.053  0.0000E+00  0.5120E+03
    146.739  0.0000E+00  0.5120E+03
    147.426  0.0000E+00  0.5120E+03
    148.113  0.0000E+00  0.5120E+03
    148.800  0.0000E+00  0.5120E+03
    149.487  0.0000E+00  0.5120E+03
    150.174  0.0000E+00  0.5120E+03
    150.861  0.0000E+00  0.5120E+03
    151.547  0.0000E+00  0.5120E+03
    152.234  0.0000E+00  0.5120E+03
    152.921  0.0000E+00  0.5120E+03
