    1    1    1    1
  0.6083477E+02  0.4414576E-09  0.4414576E-09  0.4414576E-09  0.1000000E-15
  1.000000000000000E-004
  CAR 
 Og_FCC                                  
     18    216    512
 
  0.0000000E+00  0.0000000E+00  0.0000000E+00  0.4629630E-02
    1      -43.766424   1.000000
    2      -43.766424   1.000000
    3      -43.766423   1.000000
    4      -43.766423   1.000000
    5      -39.363105   1.000000
    6      -39.363105   1.000000
    7      -39.362327   1.000000
    8      -39.362327   1.000000
    9      -39.362326   1.000000
   10      -39.362326   1.000000
   11      -17.061783   1.000000
   12      -17.061783   1.000000
   13       -4.660828   1.000000
   14       -4.660828   1.000000
   15       -0.892063   1.000000
   16       -0.892063   1.000000
   17       -0.892062   1.000000
   18       -0.892062   1.000000
   19        2.822588   0.000000
   20        2.822588   0.000000
   21        8.076320   0.000000
   22        8.076320   0.000000
   23        8.076320   0.000000
   24        8.076320   0.000000
   25        8.242087   0.000000
   26        8.242087   0.000000
   27        9.834473   0.000000
   28        9.834473   0.000000
   29       10.687898   0.000000
   30       10.687898   0.000000
   31       10.687898   0.000000
   32       10.687898   0.000000
   33       11.903040   0.000000
   34       11.903040   0.000000
   35       11.998373   0.000000
   36       11.998373   0.000000
   37       11.998373   0.000000
   38       11.998373   0.000000
   39       14.654275   0.000000
   40       14.654275   0.000000
   41       18.919020   0.000000
   42       18.919020   0.000000
   43       18.953834   0.000000
   44       18.953834   0.000000
   45       18.953835   0.000000
   46       18.953835   0.000000
   47       21.982381   0.000000
   48       21.982381   0.000000
   49       23.165582   0.000000
   50       23.165582   0.000000
   51       23.165583   0.000000
   52       23.165583   0.000000
   53       23.921233   0.000000
   54       23.921233   0.000000
   55       25.553219   0.000000
   56       25.553219   0.000000
   57       25.602373   0.000000
   58       25.602373   0.000000
   59       25.602373   0.000000
   60       25.602373   0.000000
   61       25.971980   0.000000
   62       25.971980   0.000000
   63       26.494252   0.000000
   64       26.494252   0.000000
   65       26.494252   0.000000
   66       26.494252   0.000000
   67       26.790609   0.000000
   68       26.790609   0.000000
   69       26.790609   0.000000
   70       26.790609   0.000000
   71       28.433805   0.000000
   72       28.433805   0.000000
   73       34.322342   0.000000
   74       34.322342   0.000000
   75       34.352998   0.000000
   76       34.352998   0.000000
   77       34.352999   0.000000
   78       34.352999   0.000000
   79       36.520436   0.000000
   80       36.520436   0.000000
   81       36.520436   0.000000
   82       36.520436   0.000000
   83       36.675104   0.000000
   84       36.675104   0.000000
   85       36.976209   0.000000
   86       36.976209   0.000000
   87       36.976209   0.000000
   88       36.976209   0.000000
   89       36.976209   0.000000
   90       36.976209   0.000000
   91       37.684228   0.000000
   92       37.684228   0.000000
   93       37.684228   0.000000
   94       37.684228   0.000000
   95       37.867841   0.000000
   96       37.867841   0.000000
   97       38.242850   0.000000
   98       38.242850   0.000000
   99       38.242850   0.000000
  100       38.242850   0.000000
  101       39.950651   0.000000
  102       39.950651   0.000000
  103       39.950651   0.000000
  104       39.950651   0.000000
  105       39.987706   0.000000
  106       39.987706   0.000000
  107       40.684723   0.000000
  108       40.684723   0.000000
  109       40.684723   0.000000
  110       40.684723   0.000000
  111       40.693938   0.000000
  112       40.693938   0.000000
  113       42.794474   0.000000
  114       42.794474   0.000000
  115       42.814217   0.000000
  116       42.814217   0.000000
  117       42.814217   0.000000
  118       42.814217   0.000000
  119       43.246687   0.000000
  120       43.246687   0.000000
  121       43.806498   0.000000
  122       43.806498   0.000000
  123       44.159672   0.000000
  124       44.159672   0.000000
  125       44.159672   0.000000
  126       44.159672   0.000000
  127       44.176788   0.000000
  128       44.176788   0.000000
  129       44.446775   0.000000
  130       44.446775   0.000000
  131       44.497876   0.000000
  132       44.497876   0.000000
  133       44.497876   0.000000
  134       44.497876   0.000000
  135       47.653172   0.000000
  136       47.653172   0.000000
  137       47.653172   0.000000
  138       47.653172   0.000000
  139       47.771348   0.000000
  140       47.771348   0.000000
  141       50.349269   0.000000
  142       50.349269   0.000000
  143       56.929707   0.000000
  144       56.929707   0.000000
  145       57.201901   0.000000
  146       57.201901   0.000000
  147       57.201902   0.000000
  148       57.201902   0.000000
  149       60.358027   0.000000
  150       60.358027   0.000000
  151       60.668094   0.000000
  152       60.668094   0.000000
  153       60.668094   0.000000
  154       60.668094   0.000000
  155       63.720799   0.000000
  156       63.720799   0.000000
  157       63.720800   0.000000
  158       63.720800   0.000000
  159       65.173621   0.000000
  160       65.173621   0.000000
  161       65.173621   0.000000
  162       65.173621   0.000000
  163       65.259761   0.000000
  164       65.259761   0.000000
  165       67.565597   0.000000
  166       67.565597   0.000000
  167       68.110004   0.000000
  168       68.110004   0.000000
  169       68.110004   0.000000
  170       68.110004   0.000000
  171       68.110004   0.000000
  172       68.110004   0.000000
  173       68.666425   0.000000
  174       68.666425   0.000000
  175       68.666425   0.000000
  176       68.666425   0.000000
  177       69.696011   0.000000
  178       69.696011   0.000000
  179       69.696011   0.000000
  180       69.696011   0.000000
  181       70.512855   0.000000
  182       70.512855   0.000000
  183       70.512856   0.000000
  184       70.512856   0.000000
  185       70.670282   0.000000
  186       70.670282   0.000000
  187       70.678140   0.000000
  188       70.678140   0.000000
  189       70.678141   0.000000
  190       70.678141   0.000000
  191       70.798411   0.000000
  192       70.798411   0.000000
  193       70.798412   0.000000
  194       70.798412   0.000000
  195       70.798412   0.000000
  196       70.798412   0.000000
  197       70.843990   0.000000
  198       70.843990   0.000000
  199       70.862139   0.000000
  200       70.862139   0.000000
  201       72.072159   0.000000
  202       72.072159   0.000000
  203       72.082709   0.000000
  204       72.082709   0.000000
  205       72.082709   0.000000
  206       72.082709   0.000000
  207       72.985133   0.000000
  208       72.985133   0.000000
  209       73.980695   0.000000
  210       73.980695   0.000000
  211       73.980695   0.000000
  212       73.980695   0.000000
  213       74.422631   0.000000
  214       74.422631   0.000000
  215       74.429392   0.000000
  216       74.429392   0.000000
  217       74.429392   0.000000
  218       74.429392   0.000000
  219       74.470036   0.000000
  220       74.470036   0.000000
  221       74.787939   0.000000
  222       74.787939   0.000000
  223       74.787940   0.000000
  224       74.787940   0.000000
  225       74.834237   0.000000
  226       74.834237   0.000000
  227       75.100982   0.000000
  228       75.100982   0.000000
  229       75.100982   0.000000
  230       75.100982   0.000000
  231       75.283742   0.000000
  232       75.283742   0.000000
  233       75.782827   0.000000
  234       75.782827   0.000000
  235       75.782827   0.000000
  236       75.782827   0.000000
  237       78.036656   0.000000
  238       78.036656   0.000000
  239       78.112527   0.000000
  240       78.112527   0.000000
  241       78.112528   0.000000
  242       78.112528   0.000000
  243       78.791008   0.000000
  244       78.791008   0.000000
  245       79.013487   0.000000
  246       79.013487   0.000000
  247       79.074176   0.000000
  248       79.074176   0.000000
  249       79.074176   0.000000
  250       79.074176   0.000000
  251       85.667493   0.000000
  252       85.667493   0.000000
  253       85.667494   0.000000
  254       85.667494   0.000000
  255       85.685520   0.000000
  256       85.685520   0.000000
  257       86.186732   0.000000
  258       86.186732   0.000000
  259       86.186733   0.000000
  260       86.186733   0.000000
  261       86.186733   0.000000
  262       86.186733   0.000000
  263       86.459703   0.000000
  264       86.459703   0.000000
  265       86.459703   0.000000
  266       86.459703   0.000000
  267       89.366402   0.000000
  268       89.366402   0.000000
  269       89.601889   0.000000
  270       89.601889   0.000000
  271       89.601889   0.000000
  272       89.601889   0.000000
  273       89.745787   0.000000
  274       89.745787   0.000000
  275       89.745788   0.000000
  276       89.745788   0.000000
  277       90.046891   0.000000
  278       90.046891   0.000000
  279       90.263556   0.000000
  280       90.263556   0.000000
  281       90.263557   0.000000
  282       90.263557   0.000000
  283       90.455829   0.000000
  284       90.455829   0.000000
  285       91.063017   0.000000
  286       91.063017   0.000000
  287       91.095486   0.000000
  288       91.095486   0.000000
  289       91.095486   0.000000
  290       91.095486   0.000000
  291       91.349305   0.000000
  292       91.349305   0.000000
  293       92.691870   0.000000
  294       92.691870   0.000000
  295       92.691870   0.000000
  296       92.691870   0.000000
  297       94.618755   0.000000
  298       94.618755   0.000000
  299       97.989642   0.000000
  300       97.989642   0.000000
  301       98.350559   0.000000
  302       98.350559   0.000000
  303       98.383713   0.000000
  304       98.383713   0.000000
  305       98.383713   0.000000
  306       98.383713   0.000000
  307       98.537399   0.000000
  308       98.537399   0.000000
  309       98.537399   0.000000
  310       98.537399   0.000000
  311       98.538000   0.000000
  312       98.538000   0.000000
  313       98.750247   0.000000
  314       98.750247   0.000000
  315       98.750247   0.000000
  316       98.750247   0.000000
  317       98.750247   0.000000
  318       98.750247   0.000000
  319       99.073271   0.000000
  320       99.073271   0.000000
  321       99.073271   0.000000
  322       99.073271   0.000000
  323      100.480547   0.000000
  324      100.480547   0.000000
  325      100.487329   0.000000
  326      100.487329   0.000000
  327      100.487329   0.000000
  328      100.487329   0.000000
  329      101.315133   0.000000
  330      101.315133   0.000000
  331      101.682934   0.000000
  332      101.682934   0.000000
  333      101.682934   0.000000
  334      101.682934   0.000000
  335      101.726798   0.000000
  336      101.726798   0.000000
  337      101.758805   0.000000
  338      101.758805   0.000000
  339      102.173407   0.000000
  340      102.173407   0.000000
  341      102.173407   0.000000
  342      102.173407   0.000000
  343      102.393818   0.000000
  344      102.393818   0.000000
  345      102.393818   0.000000
  346      102.393818   0.000000
  347      102.444194   0.000000
  348      102.444194   0.000000
  349      102.444195   0.000000
  350      102.444195   0.000000
  351      102.448682   0.000000
  352      102.448682   0.000000
  353      105.282685   0.000000
  354      105.282685   0.000000
  355      105.377305   0.000000
  356      105.377305   0.000000
  357      105.746048   0.000000
  358      105.746048   0.000000
  359      105.859609   0.000000
  360      105.859609   0.000000
  361      105.859609   0.000000
  362      105.859609   0.000000
  363      114.145070   0.000000
  364      114.145070   0.000000
  365      114.145070   0.000000
  366      114.145070   0.000000
  367      117.608311   0.000000
  368      117.608311   0.000000
  369      117.608311   0.000000
  370      117.608311   0.000000
  371      117.682153   0.000000
  372      117.682153   0.000000
  373      118.507354   0.000000
  374      118.507354   0.000000
  375      119.647542   0.000000
  376      119.647542   0.000000
  377      119.647543   0.000000
  378      119.647543   0.000000
  379      120.820866   0.000000
  380      120.820866   0.000000
  381      120.835872   0.000000
  382      120.835872   0.000000
  383      120.835872   0.000000
  384      120.835872   0.000000
  385      122.809368   0.000000
  386      122.809368   0.000000
  387      122.993204   0.000000
  388      122.993204   0.000000
  389      122.993204   0.000000
  390      122.993204   0.000000
  391      122.993204   0.000000
  392      122.993204   0.000000
  393      125.525681   0.000000
  394      125.525681   0.000000
  395      125.525681   0.000000
  396      125.525681   0.000000
  397      125.533207   0.000000
  398      125.533207   0.000000
  399      126.213268   0.000000
  400      126.213268   0.000000
  401      126.213269   0.000000
  402      126.213269   0.000000
  403      126.629941   0.000000
  404      126.629941   0.000000
  405      126.630923   0.000000
  406      126.630923   0.000000
  407      126.630924   0.000000
  408      126.630924   0.000000
  409      126.936330   0.000000
  410      126.936330   0.000000
  411      127.020143   0.000000
  412      127.020143   0.000000
  413      127.020143   0.000000
  414      127.020143   0.000000
  415      127.283912   0.000000
  416      127.283912   0.000000
  417      127.311997   0.000000
  418      127.311997   0.000000
  419      127.311997   0.000000
  420      127.311997   0.000000
  421      127.794493   0.000000
  422      127.794493   0.000000
  423      127.794493   0.000000
  424      127.794494   0.000000
  425      127.794494   0.000000
  426      127.794494   0.000000
  427      128.867263   0.000000
  428      128.867263   0.000000
  429      128.916046   0.000000
  430      128.916046   0.000000
  431      128.916047   0.000000
  432      128.916047   0.000000
  433      128.966425   0.000000
  434      128.966425   0.000000
  435      130.169623   0.000000
  436      130.169623   0.000000
  437      130.169623   0.000000
  438      130.169623   0.000000
  439      131.183076   0.000000
  440      131.183076   0.000000
  441      131.183076   0.000000
  442      131.183076   0.000000
  443      131.183301   0.000000
  444      131.183302   0.000000
  445      131.374934   0.000000
  446      131.374934   0.000000
  447      131.374935   0.000000
  448      131.374935   0.000000
  449      131.741034   0.000000
  450      131.741034   0.000000
  451      131.741229   0.000000
  452      131.741229   0.000000
  453      131.741230   0.000000
  454      131.741230   0.000000
  455      132.207314   0.000000
  456      132.207314   0.000000
  457      132.207315   0.000000
  458      132.207315   0.000000
  459      132.207315   0.000000
  460      132.207315   0.000000
  461      132.510269   0.000000
  462      132.510269   0.000000
  463      133.061877   0.000000
  464      133.061877   0.000000
  465      133.554507   0.000000
  466      133.554507   0.000000
  467      133.554507   0.000000
  468      133.554507   0.000000
  469      133.702175   0.000000
  470      133.702175   0.000000
  471      133.860428   0.000000
  472      133.860428   0.000000
  473      133.860429   0.000000
  474      133.860429   0.000000
  475      133.871393   0.000000
  476      133.871393   0.000000
  477      134.140688   0.000000
  478      134.140688   0.000000
  479      135.411909   0.000000
  480      135.411909   0.000000
  481      135.413277   0.000000
  482      135.413277   0.000000
  483      135.413278   0.000000
  484      135.413278   0.000000
  485      135.553373   0.000000
  486      135.553373   0.000000
  487      135.553374   0.000000
  488      135.553374   0.000000
  489      135.980787   0.000000
  490      135.980787   0.000000
  491      135.980788   0.000000
  492      135.980788   0.000000
  493      135.981309   0.000000
  494      135.981309   0.000000
  495      136.160899   0.000000
  496      136.160899   0.000000
  497      136.165052   0.000000
  498      136.165052   0.000000
  499      136.165052   0.000000
  500      136.165052   0.000000
  501      136.354997   0.000000
  502      136.354997   0.000000
  503      136.354997   0.000000
  504      136.354997   0.000000
  505      136.358133   0.000000
  506      136.358133   0.000000
  507      136.358133   0.000000
  508      136.358133   0.000000
  509      136.358133   0.000000
  510      136.358133   0.000000
  511      136.412555   0.000000
  512      136.412555   0.000000
 
  0.1666667E+00  0.1538294E-16  0.3469447E-16  0.4629630E-02
    1      -43.766392   1.000000
    2      -43.766392   1.000000
    3      -43.766311   1.000000
    4      -43.766311   1.000000
    5      -39.362725   1.000000
    6      -39.362725   1.000000
    7      -39.362168   1.000000
    8      -39.362168   1.000000
    9      -39.361918   1.000000
   10      -39.361918   1.000000
   11      -17.019655   1.000000
   12      -17.019655   1.000000
   13       -4.823203   1.000000
   14       -4.823203   1.000000
   15       -1.482310   1.000000
   16       -1.482310   1.000000
   17       -0.970850   1.000000
   18       -0.970850   1.000000
   19        3.710281   0.000000
   20        3.710281   0.000000
   21        7.384369   0.000000
   22        7.384369   0.000000
   23        8.270805   0.000000
   24        8.270805   0.000000
   25        8.429195   0.000000
   26        8.429195   0.000000
   27        9.863745   0.000000
   28        9.863745   0.000000
   29        9.947360   0.000000
   30        9.947360   0.000000
   31       10.665766   0.000000
   32       10.665766   0.000000
   33       11.907577   0.000000
   34       11.907577   0.000000
   35       13.592537   0.000000
   36       13.592537   0.000000
   37       13.643149   0.000000
   38       13.643149   0.000000
   39       16.396679   0.000000
   40       16.396679   0.000000
   41       17.984287   0.000000
   42       17.984287   0.000000
   43       18.069806   0.000000
   44       18.069806   0.000000
   45       19.004619   0.000000
   46       19.004619   0.000000
   47       19.990512   0.000000
   48       19.990512   0.000000
   49       21.981621   0.000000
   50       21.981621   0.000000
   51       22.568794   0.000000
   52       22.568794   0.000000
   53       23.551405   0.000000
   54       23.551405   0.000000
   55       24.562807   0.000000
   56       24.562807   0.000000
   57       24.698071   0.000000
   58       24.698071   0.000000
   59       24.837475   0.000000
   60       24.837475   0.000000
   61       26.282844   0.000000
   62       26.282844   0.000000
   63       26.532498   0.000000
   64       26.532498   0.000000
   65       27.364945   0.000000
   66       27.364945   0.000000
   67       27.816128   0.000000
   68       27.816128   0.000000
   69       28.534608   0.000000
   70       28.534608   0.000000
   71       31.451369   0.000000
   72       31.451369   0.000000
   73       33.088096   0.000000
   74       33.088096   0.000000
   75       33.184140   0.000000
   76       33.184140   0.000000
   77       33.444629   0.000000
   78       33.444629   0.000000
   79       33.454416   0.000000
   80       33.454416   0.000000
   81       34.276841   0.000000
   82       34.276841   0.000000
   83       34.525690   0.000000
   84       34.525690   0.000000
   85       36.398094   0.000000
   86       36.398094   0.000000
   87       36.537053   0.000000
   88       36.537053   0.000000
   89       36.930188   0.000000
   90       36.930188   0.000000
   91       37.157857   0.000000
   92       37.157857   0.000000
   93       37.239972   0.000000
   94       37.239972   0.000000
   95       37.974088   0.000000
   96       37.974088   0.000000
   97       38.005849   0.000000
   98       38.005849   0.000000
   99       38.199283   0.000000
  100       38.199283   0.000000
  101       38.477234   0.000000
  102       38.477234   0.000000
  103       40.200368   0.000000
  104       40.200368   0.000000
  105       40.311883   0.000000
  106       40.311883   0.000000
  107       40.825446   0.000000
  108       40.825446   0.000000
  109       41.756622   0.000000
  110       41.756622   0.000000
  111       41.988242   0.000000
  112       41.988242   0.000000
  113       41.989395   0.000000
  114       41.989395   0.000000
  115       44.006568   0.000000
  116       44.006568   0.000000
  117       44.090540   0.000000
  118       44.090540   0.000000
  119       45.045495   0.000000
  120       45.045495   0.000000
  121       45.308480   0.000000
  122       45.308480   0.000000
  123       45.760865   0.000000
  124       45.760865   0.000000
  125       45.887635   0.000000
  126       45.887635   0.000000
  127       45.940996   0.000000
  128       45.940996   0.000000
  129       47.174326   0.000000
  130       47.174326   0.000000
  131       47.241453   0.000000
  132       47.241453   0.000000
  133       47.701016   0.000000
  134       47.701016   0.000000
  135       48.361063   0.000000
  136       48.361063   0.000000
  137       48.412458   0.000000
  138       48.412458   0.000000
  139       49.705931   0.000000
  140       49.705931   0.000000
  141       52.108255   0.000000
  142       52.108255   0.000000
  143       54.645047   0.000000
  144       54.645047   0.000000
  145       54.704935   0.000000
  146       54.704935   0.000000
  147       55.524920   0.000000
  148       55.524920   0.000000
  149       59.928962   0.000000
  150       59.928962   0.000000
  151       60.232978   0.000000
  152       60.232978   0.000000
  153       61.645956   0.000000
  154       61.645956   0.000000
  155       61.772051   0.000000
  156       61.772051   0.000000
  157       61.795578   0.000000
  158       61.795578   0.000000
  159       62.496070   0.000000
  160       62.496070   0.000000
  161       64.047092   0.000000
  162       64.047092   0.000000
  163       64.561669   0.000000
  164       64.561669   0.000000
  165       64.804223   0.000000
  166       64.804223   0.000000
  167       64.812276   0.000000
  168       64.812276   0.000000
  169       65.481958   0.000000
  170       65.481958   0.000000
  171       65.578706   0.000000
  172       65.578706   0.000000
  173       66.475453   0.000000
  174       66.475453   0.000000
  175       66.638136   0.000000
  176       66.638136   0.000000
  177       67.287034   0.000000
  178       67.287034   0.000000
  179       67.726106   0.000000
  180       67.726106   0.000000
  181       67.814728   0.000000
  182       67.814728   0.000000
  183       68.656523   0.000000
  184       68.656523   0.000000
  185       69.084817   0.000000
  186       69.084817   0.000000
  187       69.447925   0.000000
  188       69.447925   0.000000
  189       69.684016   0.000000
  190       69.684016   0.000000
  191       69.757143   0.000000
  192       69.757143   0.000000
  193       70.871240   0.000000
  194       70.871240   0.000000
  195       71.229536   0.000000
  196       71.229536   0.000000
  197       71.273140   0.000000
  198       71.273140   0.000000
  199       71.488582   0.000000
  200       71.488582   0.000000
  201       72.549810   0.000000
  202       72.549810   0.000000
  203       72.785446   0.000000
  204       72.785446   0.000000
  205       72.814238   0.000000
  206       72.814238   0.000000
  207       72.831175   0.000000
  208       72.831175   0.000000
  209       73.103206   0.000000
  210       73.103206   0.000000
  211       73.631094   0.000000
  212       73.631094   0.000000
  213       74.256530   0.000000
  214       74.256530   0.000000
  215       76.062309   0.000000
  216       76.062309   0.000000
  217       76.147461   0.000000
  218       76.147461   0.000000
  219       76.193373   0.000000
  220       76.193373   0.000000
  221       76.382270   0.000000
  222       76.382270   0.000000
  223       76.991248   0.000000
  224       76.991248   0.000000
  225       77.410272   0.000000
  226       77.410272   0.000000
  227       77.459659   0.000000
  228       77.459659   0.000000
  229       78.047350   0.000000
  230       78.047350   0.000000
  231       78.429043   0.000000
  232       78.429043   0.000000
  233       78.511718   0.000000
  234       78.511718   0.000000
  235       78.557679   0.000000
  236       78.557679   0.000000
  237       79.830894   0.000000
  238       79.830894   0.000000
  239       80.206407   0.000000
  240       80.206407   0.000000
  241       80.250438   0.000000
  242       80.250438   0.000000
  243       80.579731   0.000000
  244       80.579731   0.000000
  245       81.877796   0.000000
  246       81.877796   0.000000
  247       81.920833   0.000000
  248       81.920833   0.000000
  249       82.961921   0.000000
  250       82.961921   0.000000
  251       83.322292   0.000000
  252       83.322292   0.000000
  253       83.393257   0.000000
  254       83.393257   0.000000
  255       83.909466   0.000000
  256       83.909466   0.000000
  257       84.318109   0.000000
  258       84.318109   0.000000
  259       84.417661   0.000000
  260       84.417661   0.000000
  261       85.559586   0.000000
  262       85.559586   0.000000
  263       85.606689   0.000000
  264       85.606689   0.000000
  265       85.633580   0.000000
  266       85.633580   0.000000
  267       85.678050   0.000000
  268       85.678050   0.000000
  269       87.670159   0.000000
  270       87.670159   0.000000
  271       87.778242   0.000000
  272       87.778242   0.000000
  273       87.856011   0.000000
  274       87.856011   0.000000
  275       89.809182   0.000000
  276       89.809182   0.000000
  277       90.267401   0.000000
  278       90.267401   0.000000
  279       90.545475   0.000000
  280       90.545475   0.000000
  281       92.204875   0.000000
  282       92.204875   0.000000
  283       92.302544   0.000000
  284       92.302544   0.000000
  285       92.376651   0.000000
  286       92.376651   0.000000
  287       92.540442   0.000000
  288       92.540442   0.000000
  289       92.790519   0.000000
  290       92.790519   0.000000
  291       93.119364   0.000000
  292       93.119364   0.000000
  293       93.131413   0.000000
  294       93.131413   0.000000
  295       93.643933   0.000000
  296       93.643933   0.000000
  297       93.715961   0.000000
  298       93.715961   0.000000
  299       93.962944   0.000000
  300       93.962944   0.000000
  301       95.183722   0.000000
  302       95.183722   0.000000
  303       95.306819   0.000000
  304       95.306819   0.000000
  305       95.474913   0.000000
  306       95.474913   0.000000
  307       96.296693   0.000000
  308       96.296693   0.000000
  309       96.387975   0.000000
  310       96.387975   0.000000
  311       97.006828   0.000000
  312       97.006828   0.000000
  313       97.480145   0.000000
  314       97.480145   0.000000
  315       97.560195   0.000000
  316       97.560195   0.000000
  317       98.449765   0.000000
  318       98.449765   0.000000
  319       98.484619   0.000000
  320       98.484619   0.000000
  321       98.687529   0.000000
  322       98.687529   0.000000
  323       99.091301   0.000000
  324       99.091301   0.000000
  325       99.120778   0.000000
  326       99.120778   0.000000
  327       99.634166   0.000000
  328       99.634166   0.000000
  329      103.318853   0.000000
  330      103.318853   0.000000
  331      103.711730   0.000000
  332      103.711730   0.000000
  333      103.716080   0.000000
  334      103.716080   0.000000
  335      104.419052   0.000000
  336      104.419052   0.000000
  337      104.685240   0.000000
  338      104.685240   0.000000
  339      105.411468   0.000000
  340      105.411468   0.000000
  341      105.904388   0.000000
  342      105.904388   0.000000
  343      106.356426   0.000000
  344      106.356426   0.000000
  345      106.890287   0.000000
  346      106.890287   0.000000
  347      106.936326   0.000000
  348      106.936326   0.000000
  349      107.960346   0.000000
  350      107.960346   0.000000
  351      108.349424   0.000000
  352      108.349424   0.000000
  353      108.563569   0.000000
  354      108.563569   0.000000
  355      109.871147   0.000000
  356      109.871147   0.000000
  357      110.098151   0.000000
  358      110.098151   0.000000
  359      110.120924   0.000000
  360      110.120924   0.000000
  361      110.185182   0.000000
  362      110.185182   0.000000
  363      110.580233   0.000000
  364      110.580233   0.000000
  365      110.598249   0.000000
  366      110.598249   0.000000
  367      113.738282   0.000000
  368      113.738283   0.000000
  369      115.278523   0.000000
  370      115.278523   0.000000
  371      115.713936   0.000000
  372      115.713936   0.000000
  373      115.764306   0.000000
  374      115.764306   0.000000
  375      116.594938   0.000000
  376      116.594938   0.000000
  377      116.664290   0.000000
  378      116.664290   0.000000
  379      117.571156   0.000000
  380      117.571156   0.000000
  381      117.649392   0.000000
  382      117.649392   0.000000
  383      119.205857   0.000000
  384      119.205857   0.000000
  385      120.538100   0.000000
  386      120.538100   0.000000
  387      120.980452   0.000000