   1   1   0   0
  0.3721384E+02  0.3747484E-09  0.3747484E-09  0.3747484E-09  0.1000000E-15
  1.000000000000000E-004
  CAR 
 Og_FCC                                  
    134.75729070    -32.11321474  301     -9.16852024      1.00000000
    -32.113  0.0000E+00  0.0000E+00
    -31.557  0.0000E+00  0.0000E+00
    -31.001  0.0000E+00  0.0000E+00
    -30.445  0.0000E+00  0.0000E+00
    -29.888  0.0000E+00  0.0000E+00
    -29.332  0.0000E+00  0.0000E+00
    -28.776  0.0000E+00  0.0000E+00
    -28.220  0.0000E+00  0.0000E+00
    -27.663  0.0000E+00  0.0000E+00
    -27.107  0.0000E+00  0.0000E+00
    -26.551  0.0000E+00  0.0000E+00
    -25.995  0.0000E+00  0.0000E+00
    -25.438  0.0000E+00  0.0000E+00
    -24.882  0.0000E+00  0.0000E+00
    -24.326  0.2354E+00  0.6499E+00
    -23.770  0.0000E+00  0.2000E+01
    -23.213  0.0000E+00  0.2000E+01
    -22.657  0.0000E+00  0.2000E+01
    -22.101  0.0000E+00  0.2000E+01
    -21.545  0.0000E+00  0.2000E+01
    -20.989  0.0000E+00  0.2000E+01
    -20.432  0.0000E+00  0.2000E+01
    -19.876  0.0000E+00  0.2000E+01
    -19.320  0.0000E+00  0.2000E+01
    -18.764  0.0000E+00  0.2000E+01
    -18.207  0.0000E+00  0.2000E+01
    -17.651  0.0000E+00  0.2000E+01
    -17.095  0.0000E+00  0.2000E+01
    -16.539  0.0000E+00  0.2000E+01
    -15.982  0.0000E+00  0.2000E+01
    -15.426  0.0000E+00  0.2000E+01
    -14.870  0.0000E+00  0.2000E+01
    -14.314  0.0000E+00  0.2000E+01
    -13.757  0.0000E+00  0.2000E+01
    -13.201  0.0000E+00  0.2000E+01
    -12.645  0.0000E+00  0.2000E+01
    -12.089  0.0000E+00  0.2000E+01
    -11.533  0.0000E+00  0.2000E+01
    -10.976  0.0000E+00  0.2000E+01
    -10.420  0.0000E+00  0.3341E+01
     -9.864  0.0000E+00  0.4752E+01
     -9.308  0.1048E-01  0.8000E+01
     -8.751  0.0000E+00  0.8000E+01
     -8.195  0.0000E+00  0.8000E+01
     -7.639  0.0000E+00  0.8000E+01
     -7.083  0.0000E+00  0.8000E+01
     -6.526  0.0000E+00  0.8000E+01
     -5.970  0.0000E+00  0.8000E+01
     -5.414  0.0000E+00  0.8000E+01
     -4.858  0.0000E+00  0.8000E+01
     -4.301  0.0000E+00  0.8000E+01
     -3.745  0.0000E+00  0.8000E+01
     -3.189  0.0000E+00  0.8000E+01
     -2.633  0.0000E+00  0.8000E+01
     -2.077  0.0000E+00  0.8000E+01
     -1.520  0.0000E+00  0.8000E+01
     -0.964  0.0000E+00  0.8000E+01
     -0.408  0.0000E+00  0.8000E+01
      0.148  0.0000E+00  0.8000E+01
      0.705  0.0000E+00  0.8000E+01
      1.261  0.0000E+00  0.8000E+01
      1.817  0.0000E+00  0.8000E+01
      2.373  0.0000E+00  0.8000E+01
      2.930  0.0000E+00  0.8000E+01
      3.486  0.0000E+00  0.8000E+01
      4.042  0.0000E+00  0.8000E+01
      4.598  0.0000E+00  0.8000E+01
      5.155  0.0000E+00  0.8006E+01
      5.711  0.0000E+00  0.8052E+01
      6.267  0.0000E+00  0.8087E+01
      6.823  0.0000E+00  0.8157E+01
      7.379  0.6290E-01  0.8379E+01
      7.936  0.2379E+00  0.8651E+01
      8.492  0.0000E+00  0.9090E+01
      9.048  0.0000E+00  0.9370E+01
      9.604  0.0000E+00  0.1000E+02
     10.161  0.0000E+00  0.1066E+02
     10.717  0.0000E+00  0.1134E+02
     11.273  0.0000E+00  0.1191E+02
     11.829  0.0000E+00  0.1307E+02
     12.386  0.0000E+00  0.1398E+02
     12.942  0.0000E+00  0.1441E+02
     13.498  0.1375E+00  0.1534E+02
     14.054  0.0000E+00  0.1721E+02
     14.611  0.0000E+00  0.1895E+02
     15.167  0.0000E+00  0.1980E+02
     15.723  0.0000E+00  0.2006E+02
     16.279  0.2516E+00  0.2132E+02
     16.835  0.0000E+00  0.2210E+02
     17.392  0.0000E+00  0.2272E+02
     17.948  0.0000E+00  0.2311E+02
     18.504  0.0000E+00  0.2442E+02
     19.060  0.0000E+00  0.2541E+02
     19.617  0.0000E+00  0.2609E+02
     20.173  0.0000E+00  0.2651E+02
     20.729  0.0000E+00  0.2749E+02
     21.285  0.0000E+00  0.2806E+02
     21.842  0.0000E+00  0.2823E+02
     22.398  0.0000E+00  0.2893E+02
     22.954  0.0000E+00  0.2963E+02
     23.510  0.0000E+00  0.3008E+02
     24.067  0.1786E-01  0.3097E+02
     24.623  0.0000E+00  0.3208E+02
     25.179  0.0000E+00  0.3316E+02
     25.735  0.0000E+00  0.3348E+02
     26.291  0.0000E+00  0.3410E+02
     26.848  0.0000E+00  0.3498E+02
     27.404  0.0000E+00  0.3559E+02
     27.960  0.0000E+00  0.3634E+02
     28.516  0.4884E-06  0.3732E+02
     29.073  0.0000E+00  0.3833E+02
     29.629  0.0000E+00  0.3945E+02
     30.185  0.0000E+00  0.4022E+02
     30.741  0.0000E+00  0.4068E+02
     31.298  0.0000E+00  0.4158E+02
     31.854  0.0000E+00  0.4272E+02
     32.410  0.0000E+00  0.4332E+02
     32.966  0.0000E+00  0.4422E+02
     33.523  0.0000E+00  0.4520E+02
     34.079  0.0000E+00  0.4576E+02
     34.635  0.0000E+00  0.4718E+02
     35.191  0.6916E-02  0.4795E+02
     35.747  0.0000E+00  0.4876E+02
     36.304  0.0000E+00  0.4956E+02
     36.860  0.0000E+00  0.5033E+02
     37.416  0.0000E+00  0.5125E+02
     37.972  0.0000E+00  0.5213E+02
     38.529  0.0000E+00  0.5359E+02
     39.085  0.0000E+00  0.5442E+02
     39.641  0.0000E+00  0.5517E+02
     40.197  0.6062E-08  0.5601E+02
     40.754  0.0000E+00  0.5706E+02
     41.310  0.0000E+00  0.5828E+02
     41.866  0.0000E+00  0.5912E+02
     42.422  0.0000E+00  0.5996E+02
     42.979  0.0000E+00  0.6069E+02
     43.535  0.6459E-01  0.6162E+02
     44.091  0.6287E-01  0.6283E+02
     44.647  0.0000E+00  0.6382E+02
     45.203  0.0000E+00  0.6500E+02
     45.760  0.0000E+00  0.6590E+02
     46.316  0.5574E-01  0.6728E+02
     46.872  0.0000E+00  0.6829E+02
     47.428  0.5722E-13  0.6894E+02
     47.985  0.3158E-11  0.6975E+02
     48.541  0.0000E+00  0.7079E+02
     49.097  0.0000E+00  0.7146E+02
     49.653  0.0000E+00  0.7260E+02
     50.210  0.0000E+00  0.7364E+02
     50.766  0.0000E+00  0.7490E+02
     51.322  0.1047E-16  0.7578E+02
     51.878  0.0000E+00  0.7664E+02
     52.435  0.0000E+00  0.7785E+02
     52.991  0.0000E+00  0.7840E+02
     53.547  0.0000E+00  0.8010E+02
     54.103  0.0000E+00  0.8184E+02
     54.659  0.0000E+00  0.8276E+02
     55.216  0.0000E+00  0.8343E+02
     55.772  0.0000E+00  0.8409E+02
     56.328  0.0000E+00  0.8546E+02
     56.884  0.0000E+00  0.8648E+02
     57.441  0.0000E+00  0.8749E+02
     57.997  0.0000E+00  0.8900E+02
     58.553  0.5026E+00  0.9038E+02
     59.109  0.0000E+00  0.9133E+02
     59.666  0.0000E+00  0.9220E+02
     60.222  0.0000E+00  0.9386E+02
     60.778  0.0000E+00  0.9485E+02
     61.334  0.0000E+00  0.9646E+02
     61.891  0.2516E+00  0.9755E+02
     62.447  0.0000E+00  0.9892E+02
     63.003  0.0000E+00  0.9982E+02
     63.559  0.0000E+00  0.1008E+03
     64.115  0.0000E+00  0.1017E+03
     64.672  0.8699E-11  0.1026E+03
     65.228  0.1677E+00  0.1037E+03
     65.784  0.0000E+00  0.1055E+03
     66.340  0.0000E+00  0.1065E+03
     66.897  0.0000E+00  0.1075E+03
     67.453  0.2516E+00  0.1089E+03
     68.009  0.0000E+00  0.1103E+03
     68.565  0.2386E+00  0.1118E+03
     69.122  0.0000E+00  0.1126E+03
     69.678  0.1369E+00  0.1136E+03
     70.234  0.0000E+00  0.1149E+03
     70.790  0.5335E-01  0.1163E+03
     71.346  0.6494E-09  0.1168E+03
     71.903  0.1310E-04  0.1183E+03
     72.459  0.3900E-07  0.1199E+03
     73.015  0.0000E+00  0.1213E+03
     73.571  0.0000E+00  0.1229E+03
     74.128  0.1686E-11  0.1243E+03
     74.684  0.0000E+00  0.1257E+03
     75.240  0.0000E+00  0.1264E+03
     75.796  0.0000E+00  0.1276E+03
     76.353  0.0000E+00  0.1286E+03
     76.909  0.0000E+00  0.1299E+03
     77.465  0.0000E+00  0.1308E+03
     78.021  0.0000E+00  0.1326E+03
     78.578  0.0000E+00  0.1341E+03
     79.134  0.0000E+00  0.1349E+03
     79.690  0.0000E+00  0.1359E+03
     80.246  0.0000E+00  0.1369E+03
     80.802  0.0000E+00  0.1383E+03
     81.359  0.0000E+00  0.1404E+03
     81.915  0.0000E+00  0.1415E+03
     82.471  0.0000E+00  0.1429E+03
     83.027  0.0000E+00  0.1437E+03
     83.584  0.0000E+00  0.1452E+03
     84.140  0.3740E+00  0.1464E+03
     84.696  0.0000E+00  0.1477E+03
     85.252  0.0000E+00  0.1494E+03
     85.809  0.2515E+00  0.1511E+03
     86.365  0.0000E+00  0.1525E+03
     86.921  0.0000E+00  0.1537E+03
     87.477  0.0000E+00  0.1546E+03
     88.034  0.0000E+00  0.1560E+03
     88.590  0.8386E-01  0.1579E+03
     89.146  0.0000E+00  0.1596E+03
     89.702  0.0000E+00  0.1610E+03
     90.258  0.0000E+00  0.1621E+03
     90.815  0.0000E+00  0.1631E+03
     91.371  0.0000E+00  0.1648E+03
     91.927  0.2516E+00  0.1661E+03
     92.483  0.0000E+00  0.1677E+03
     93.040  0.1113E-07  0.1691E+03
     93.596  0.0000E+00  0.1707E+03
     94.152  0.6290E-01  0.1720E+03
     94.708  0.0000E+00  0.1725E+03
     95.265  0.0000E+00  0.1742E+03
     95.821  0.0000E+00  0.1758E+03
     96.377  0.0000E+00  0.1766E+03
     96.933  0.0000E+00  0.1780E+03
     97.490  0.0000E+00  0.1792E+03
     98.046  0.0000E+00  0.1812E+03
     98.602  0.0000E+00  0.1828E+03
     99.158  0.5043E-11  0.1841E+03
     99.714  0.0000E+00  0.1859E+03
    100.271  0.6290E-01  0.1870E+03
    100.827  0.0000E+00  0.1889E+03
    101.383  0.0000E+00  0.1904E+03
    101.939  0.0000E+00  0.1919E+03
    102.496  0.0000E+00  0.1934E+03
    103.052  0.0000E+00  0.1944E+03
    103.608  0.0000E+00  0.1957E+03
    104.164  0.0000E+00  0.1971E+03
    104.721  0.0000E+00  0.1984E+03
    105.277  0.4808E-10  0.2000E+03
    105.833  0.8925E-01  0.2020E+03
    106.389  0.0000E+00  0.2035E+03
    106.946  0.2224E-01  0.2044E+03
    107.502  0.0000E+00  0.2062E+03
    108.058  0.0000E+00  0.2078E+03
    108.614  0.2405E+00  0.2094E+03
    109.170  0.2088E+00  0.2110E+03
    109.727  0.0000E+00  0.2130E+03
    110.283  0.0000E+00  0.2146E+03
    110.839  0.2516E+00  0.2154E+03
    111.395  0.0000E+00  0.2171E+03
    111.952  0.6290E-01  0.2189E+03
    112.508  0.1233E-04  0.2201E+03
    113.064  0.0000E+00  0.2214E+03
    113.620  0.0000E+00  0.2229E+03
    114.177  0.0000E+00  0.2240E+03
    114.733  0.0000E+00  0.2258E+03
    115.289  0.0000E+00  0.2270E+03
    115.845  0.0000E+00  0.2286E+03
    116.402  0.0000E+00  0.2300E+03
    116.958  0.5032E+00  0.2318E+03
    117.514  0.0000E+00  0.2333E+03
    118.070  0.0000E+00  0.2350E+03
    118.626  0.3725E-04  0.2368E+03
    119.183  0.2516E+00  0.2382E+03
    119.739  0.2516E+00  0.2397E+03
    120.295  0.1147E-02  0.2420E+03
    120.851  0.0000E+00  0.2435E+03
    121.408  0.2509E+00  0.2450E+03
    121.964  0.0000E+00  0.2470E+03
    122.520  0.2516E+00  0.2480E+03
    123.076  0.0000E+00  0.2489E+03
    123.633  0.0000E+00  0.2503E+03
    124.189  0.0000E+00  0.2518E+03
    124.745  0.0000E+00  0.2525E+03
    125.301  0.0000E+00  0.2534E+03
    125.858  0.0000E+00  0.2544E+03
    126.414  0.0000E+00  0.2553E+03
    126.970  0.0000E+00  0.2557E+03
    127.526  0.0000E+00  0.2560E+03
    128.082  0.0000E+00  0.2560E+03
    128.639  0.0000E+00  0.2560E+03
    129.195  0.0000E+00  0.2560E+03
    129.751  0.0000E+00  0.2560E+03
    130.307  0.0000E+00  0.2560E+03
    130.864  0.0000E+00  0.2560E+03
    131.420  0.0000E+00  0.2560E+03
    131.976  0.0000E+00  0.2560E+03
    132.532  0.0000E+00  0.2560E+03
    133.089  0.0000E+00  0.2560E+03
    133.645  0.0000E+00  0.2560E+03
    134.201  0.0000E+00  0.2560E+03
    134.757  0.0000E+00  0.2560E+03
