    1    1    1    1
  0.3721384E+02  0.3747484E-09  0.3747484E-09  0.3747484E-09  0.1000000E-15
  1.000000000000000E-004
  CAR 
 Og_FCC                                  
      8    172    128
 
  0.0000000E+00  0.0000000E+00  0.0000000E+00  0.2915452E-02
    1      -24.528192   1.000000
    2       -9.319177   1.000000
    3       -9.316637   1.000000
    4       -9.315492   1.000000
    5        5.038063   0.000000
    6       13.490613   0.000000
    7       13.492300   0.000000
    8       13.493970   0.000000
    9       12.899682   0.000000
   10       12.899682   0.000000
   11       15.648144   0.000000
   12       18.371373   0.000000
   13       18.371374   0.000000
   14       18.371374   0.000000
   15       20.490088   0.000000
   16       26.963842   0.000000
   17       26.963844   0.000000
   18       26.963845   0.000000
   19       28.259409   0.000000
   20       28.259410   0.000000
   21       28.259411   0.000000
   22       31.088990   0.000000
   23       31.088993   0.000000
   24       37.469097   0.000000
   25       37.721068   0.000000
   26       37.721068   0.000000
   27       37.721069   0.000000
   28       44.296480   0.000000
   29       44.296481   0.000000
   30       47.586551   0.000000
   31       47.586551   0.000000
   32       47.586553   0.000000
   33       47.989125   0.000000
   34       47.989126   0.000000
   35       47.989127   0.000000
   36       51.828773   0.000000
   37       51.978859   0.000000
   38       51.978859   0.000000
   39       51.978860   0.000000
   40       54.438436   0.000000
   41       54.899818   0.000000
   42       54.899821   0.000000
   43       54.899821   0.000000
   44       55.114122   0.000000
   45       55.114122   0.000000
   46       55.114123   0.000000
   47       57.345462   0.000000
   48       57.345463   0.000000
   49       57.345465   0.000000
   50       57.949259   0.000000
   51       57.949262   0.000000
   52       61.540176   0.000000
   53       61.540177   0.000000
   54       61.540179   0.000000
   55       61.696801   0.000000
   56       61.696802   0.000000
   57       61.696803   0.000000
   58       61.854634   0.000000
   59       62.277575   0.000000
   60       72.159700   0.000000
   61       72.159701   0.000000
   62       75.917417   0.000000
   63       75.917421   0.000000
   64       75.917422   0.000000
   65       78.312557   0.000000
   66       78.312558   0.000000
   67       78.312559   0.000000
   68       82.269951   0.000000
   69       85.885424   0.000000
   70       85.885425   0.000000
   71       85.885429   0.000000
   72       86.774435   0.000000
   73       86.774436   0.000000
   74       86.774439   0.000000
   75       86.931026   0.000000
   76       86.931029   0.000000
   77       93.449034   0.000000
   78       97.264173   0.000000
   79       97.264175   0.000000
   80       97.264178   0.000000
   81       97.323636   0.000000
   82       97.323637   0.000000
   83       97.323639   0.000000
   84       98.756907   0.000000
   85       98.756910   0.000000
   86       99.091812   0.000000
   87       99.091815   0.000000
   88       99.091816   0.000000
   89       99.425556   0.000000
   90       99.425560   0.000000
   91       99.577276   0.000000
   92      100.407031   0.000000
   93      100.407031   0.000000
   94      100.407034   0.000000
   95      101.923964   0.000000
   96      101.923965   0.000000
   97      101.923966   0.000000
   98      102.945798   0.000000
   99      102.945801   0.000000
  100      102.945801   0.000000
  101      104.044867   0.000000
  102      104.419929   0.000000
  103      104.419931   0.000000
  104      104.419934   0.000000
  105      104.424873   0.000000
  106      104.424874   0.000000
  107      104.424875   0.000000
  108      104.970622   0.000000
  109      104.970626   0.000000
  110      104.970626   0.000000
  111      105.106260   0.000000
  112      105.106264   0.000000
  113      106.455515   0.000000
  114      116.180616   0.000000
  115      116.180617   0.000000
  116      116.180619   0.000000
  117      117.961613   0.000000
  118      119.209617   0.000000
  119      119.209620   0.000000
  120      120.141195   0.000000
  121      120.141198   0.000000
  122      120.141200   0.000000
  123      122.675955   0.000000
  124      122.675956   0.000000
  125      122.675960   0.000000
  126      122.907598   0.000000
  127      122.907600   0.000000
  128      122.907601   0.000000
 
  0.1428571E+00 -0.1225762E-16  0.1387779E-16  0.5830904E-02
    1      -24.486982   1.000000
    2       -9.644925   1.000000
    3       -9.349666   1.000000
    4       -9.349468   1.000000
    5        5.619826   0.000000
    6       12.499167   0.000000
    7       13.693712   0.000000
    8       13.693996   0.000000
    9       12.575514   0.000000
   10       12.575514   0.000000
   11       16.447116   0.000000
   12       17.334953   0.000000
   13       19.466832   0.000000
   14       19.466832   0.000000
   15       22.360920   0.000000
   16       24.641396   0.000000
   17       25.159426   0.000000
   18       25.159428   0.000000
   19       28.519608   0.000000
   20       28.519608   0.000000
   21       30.282256   0.000000
   22       31.749122   0.000000
   23       31.749123   0.000000
   24       37.913104   0.000000
   25       37.913105   0.000000
   26       37.983333   0.000000
   27       38.483852   0.000000
   28       43.072798   0.000000
   29       43.534954   0.000000
   30       43.534955   0.000000
   31       46.573576   0.000000
   32       46.573576   0.000000
   33       47.943768   0.000000
   34       49.380779   0.000000
   35       49.380779   0.000000
   36       50.406677   0.000000
   37       50.406678   0.000000
   38       50.932020   0.000000
   39       51.506344   0.000000
   40       52.721012   0.000000
   41       52.721012   0.000000
   42       53.482560   0.000000
   43       54.003627   0.000000
   44       56.425607   0.000000
   45       56.425607   0.000000
   46       57.139288   0.000000
   47       57.525794   0.000000
   48       57.525795   0.000000
   49       58.725865   0.000000
   50       59.808350   0.000000
   51       60.243196   0.000000
   52       60.243197   0.000000
   53       60.453748   0.000000
   54       63.743629   0.000000
   55       63.743631   0.000000
   56       65.222244   0.000000
   57       65.222244   0.000000
   58       65.457068   0.000000
   59       69.283017   0.000000
   60       69.283018   0.000000
   61       70.441081   0.000000
   62       72.951066   0.000000
   63       74.109553   0.000000
   64       74.109556   0.000000
   65       75.015782   0.000000
   66       79.798570   0.000000
   67       79.798571   0.000000
   68       84.445483   0.000000
   69       84.445484   0.000000
   70       84.621414   0.000000
   71       86.013847   0.000000
   72       86.013847   0.000000
   73       86.658780   0.000000
   74       88.582369   0.000000
   75       89.035574   0.000000
   76       90.383664   0.000000
   77       90.383665   0.000000
   78       90.476244   0.000000
   79       90.476244   0.000000
   80       93.955730   0.000000
   81       93.955730   0.000000
   82       94.410781   0.000000
   83       95.326864   0.000000
   84       95.926153   0.000000
   85       95.926153   0.000000
   86       95.996921   0.000000
   87       97.982581   0.000000
   88       97.982581   0.000000
   89       99.268129   0.000000
   90       99.268129   0.000000
   91       99.416851   0.000000
   92       99.616141   0.000000
   93      100.662354   0.000000
   94      100.662355   0.000000
   95      101.214706   0.000000
   96      101.214707   0.000000
   97      101.633739   0.000000
   98      101.908298   0.000000
   99      104.956380   0.000000
  100      104.956382   0.000000
  101      105.467659   0.000000
  102      106.554328   0.000000
  103      106.857330   0.000000
  104      107.120103   0.000000
  105      107.120104   0.000000
  106      108.165234   0.000000
  107      108.199520   0.000000
  108      108.199521   0.000000
  109      110.393227   0.000000
  110      110.393228   0.000000
  111      111.155802   0.000000
  112      111.155802   0.000000
  113      112.624359   0.000000
  114      113.336145   0.000000
  115      113.336146   0.000000
  116      113.742373   0.000000
  117      114.360226   0.000000
  118      114.360226   0.000000
  119      116.517728   0.000000
  120      116.517729   0.000000
  121      117.215261   0.000000
  122      117.462572   0.000000
  123      120.656504   0.000000
  124      120.656505   0.000000
  125      121.714327   0.000000
  126      122.596156   0.000000
  127      122.596157   0.000000
  128      123.284637   0.000000
 
  0.2857143E+00 -0.2451524E-16  0.2775558E-16  0.5830904E-02
    1      -24.393309   1.000000
    2      -10.323446   1.000000
    3       -9.427636   1.000000
    4       -9.427349   1.000000
    5        6.950024   0.000000
    6       11.194934   0.000000
    7       13.497885   0.000000
    8       13.497988   0.000000
    9       12.965468   0.000000
   10       12.965469   0.000000
   11       15.284777   0.000000
   12       18.957641   0.000000
   13       21.257377   0.000000
   14       21.602608   0.000000
   15       21.602609   0.000000
   16       22.387928   0.000000
   17       22.387929   0.000000
   18       27.451446   0.000000
   19       28.630739   0.000000
   20       28.630739   0.000000
   21       31.094834   0.000000
   22       32.665520   0.000000
   23       32.665521   0.000000
   24       36.168215   0.000000
   25       36.168215   0.000000
   26       37.293345   0.000000
   27       38.673338   0.000000
   28       41.722570   0.000000
   29       43.327577   0.000000
   30       43.327577   0.000000
   31       45.582517   0.000000
   32       45.993056   0.000000
   33       45.993056   0.000000
   34       47.178779   0.000000
   35       47.178780   0.000000
   36       47.678096   0.000000
   37       48.236122   0.000000
   38       50.785751   0.000000
   39       50.785751   0.000000
   40       51.112837   0.000000
   41       53.524447   0.000000
   42       53.524447   0.000000
   43       54.382128   0.000000
   44       56.555362   0.000000
   45       56.555363   0.000000
   46       58.314291   0.000000
   47       60.536348   0.000000
   48       60.536348   0.000000
   49       62.845218   0.000000
   50       63.396753   0.000000
   51       63.396753   0.000000
   52       64.247015   0.000000
   53       65.055895   0.000000
   54       65.055895   0.000000
   55       65.270113   0.000000
   56       68.024044   0.000000
   57       68.928364   0.000000
   58       68.928366   0.000000
   59       69.677156   0.000000
   60       69.677156   0.000000
   61       70.063285   0.000000
   62       70.804602   0.000000
   63       71.905407   0.000000
   64       71.905408   0.000000
   65       78.125094   0.000000
   66       78.125095   0.000000
   67       80.233459   0.000000
   68       81.232408   0.000000
   69       81.472642   0.000000
   70       81.472643   0.000000
   71       84.566258   0.000000
   72       84.870252   0.000000
   73       84.870253   0.000000
   74       85.650629   0.000000
   75       85.650629   0.000000
   76       85.870648   0.000000
   77       88.184306   0.000000
   78       88.184307   0.000000
   79       88.307713   0.000000
   80       89.028831   0.000000
   81       90.495578   0.000000
   82       90.495579   0.000000
   83       93.580373   0.000000
   84       96.015296   0.000000
   85       97.031701   0.000000
   86       97.031702   0.000000
   87       97.664050   0.000000
   88       97.664051   0.000000
   89       98.792687   0.000000
   90       99.202140   0.000000
   91       99.202141   0.000000
   92       99.427495   0.000000
   93      100.132845   0.000000
   94      100.590065   0.000000
   95      100.590066   0.000000
   96      101.748658   0.000000
   97      101.748659   0.000000
   98      101.987715   0.000000
   99      104.980962   0.000000
  100      104.980963   0.000000
  101      105.896919   0.000000
  102      108.201212   0.000000
  103      108.201214   0.000000
  104      109.131921   0.000000
  105      109.131921   0.000000
  106      109.165893   0.000000
  107      110.628748   0.000000
  108      111.099211   0.000000
  109      111.099212   0.000000
  110      111.291017   0.000000
  111      111.291017   0.000000
  112      112.419128   0.000000
  113      113.530116   0.000000
  114      114.367204   0.000000
  115      115.102118   0.000000
  116      116.091893   0.000000
  117      116.091894   0.000000
  118      117.882732   0.000000
  119      117.882732   0.000000
  120      119.149544   0.000000
  121      120.699539   0.000000
  122      120.699539   0.000000
  123      121.476435   0.000000
  124      121.476436   0.000000
  125      122.078336   0.000000
  126      122.583331   0.000000
  127      123.571369   0.000000
  128      123.571370   0.000000
 
  0.4285714E+00 -0.2289507E-16  0.2775558E-16  0.5830904E-02
    1      -24.314971   1.000000
    2      -10.822134   1.000000
    3       -9.488774   1.000000
    4       -9.488452   1.000000
    5        8.073512   0.000000
    6       10.466133   0.000000
    7       13.031319   0.000000
    8       13.031397   0.000000
    9       14.247392   0.000000
   10       14.247393   0.000000
   11       15.019242   0.000000
   12       16.964174   0.000000
   13       19.495505   0.000000
   14       19.495508   0.000000
   15       24.159198   0.000000
   16       24.437699   0.000000
   17       24.437700   0.000000
   18       28.467022   0.000000
   19       28.467022   0.000000
   20       28.820381   0.000000
   21       32.564570   0.000000
   22       32.776824   0.000000
   23       32.776825   0.000000
   24       34.547570   0.000000
   25       34.547571   0.000000
   26       35.280024   0.000000
   27       38.781379   0.000000
   28       39.448498   0.000000
   29       41.417718   0.000000
   30       41.417719   0.000000
   31       43.001825   0.000000
   32       44.859579   0.000000
   33       44.859580   0.000000
   34       45.612866   0.000000
   35       49.999641   0.000000
   36       49.999642   0.000000
   37       50.251002   0.000000
   38       50.909053   0.000000
   39       50.909053   0.000000
   40       50.954159   0.000000
   41       53.350837   0.000000
   42       53.350837   0.000000
   43       53.751010   0.000000
   44       58.340669   0.000000
   45       58.665122   0.000000
   46       58.665125   0.000000
   47       60.567796   0.000000
   48       60.567797   0.000000
   49       62.842351   0.000000
   50       63.645736   0.000000
   51       63.645737   0.000000
   52       65.718647   0.000000
   53       66.627423   0.000000
   54       66.627424   0.000000
   55       69.155190   0.000000
   56       69.155191   0.000000
   57       69.269431   0.000000
   58       71.354933   0.000000
   59       72.182153   0.000000
   60       72.736553   0.000000
   61       72.736554   0.000000
   62       74.817457   0.000000
   63       74.817458   0.000000
   64       75.292623   0.000000
   65       75.292623   0.000000
   66       75.324506   0.000000
   67       76.431812   0.000000
   68       78.076406   0.000000
   69       79.770800   0.000000
   70       80.470873   0.000000
   71       80.470873   0.000000
   72       81.048619   0.000000
   73       81.048619   0.000000
   74       82.422920   0.000000
   75       82.422921   0.000000
   76       84.242197   0.000000
   77       85.799281   0.000000
   78       85.799282   0.000000
   79       87.244099   0.000000
   80       89.922632   0.000000
   81       89.922632   0.000000
   82       90.538679   0.000000
   83       93.498805   0.000000
   84       94.679623   0.000000
   85       94.987202   0.000000
   86       94.987202   0.000000
   87       97.355004   0.000000
   88       97.355005   0.000000
   89       98.444779   0.000000
   90       98.444780   0.000000
   91       98.772060   0.000000
   92      100.736153   0.000000
   93      100.736154   0.000000
   94      100.738571   0.000000
   95      102.061191   0.000000
   96      102.855440   0.000000
   97      104.449165   0.000000
   98      104.449166   0.000000
   99      104.529631   0.000000
  100      105.414561   0.000000
  101      105.414562   0.000000
  102      105.912199   0.000000
  103      105.912200   0.000000
  104      107.623320   0.000000
  105      108.108611   0.000000
  106      109.692320   0.000000
  107      109.692322   0.000000
  108      110.267392   0.000000
  109      112.651382   0.000000
  110      112.851440   0.000000
  111      112.851441   0.000000
  112      113.015943   0.000000
  113      113.015943   0.000000
  114      115.121067   0.000000
  115      116.187574   0.000000
  116      116.187575   0.000000
  117      116.554832   0.000000
  118      117.949041   0.000000
  119      117.949041   0.000000
  120      119.933749   0.000000
  121      119.933750   0.000000
  122      120.326311   0.000000
  123      120.570897   0.000000
  124      122.723011   0.000000
  125      123.019591   0.000000
  126      123.019593   0.000000
  127      124.217155   0.000000
  128      124.217155   0.000000
 
 -0.1925930E-33  0.1428571E+00  0.0000000E+00  0.5830904E-02
    1      -24.486977   1.000000
    2       -9.644947   1.000000
    3       -9.349723   1.000000
    4       -9.349505   1.000000
    5        5.619889   0.000000
    6       12.499617   0.000000
    7       13.692737   0.000000
    8       13.694382   0.000000
    9       12.575514   0.000000
   10       12.575515   0.000000
   11       16.447116   0.000000
   12       17.334953   0.000000
   13       19.466832   0.000000
   14       19.466832   0.000000
   15       22.360920   0.000000
   16       24.641396   0.000000
   17       25.159427   0.000000
   18       25.159428   0.000000
   19       28.519605   0.000000
   20       28.519608   0.000000
   21       30.282255   0.000000
   22       31.749121   0.000000
   23       31.749124   0.000000
   24       37.913104   0.000000
   25       37.913105   0.000000
   26       37.983333   0.000000
   27       38.483852   0.000000
   28       43.072797   0.000000
   29       43.534954   0.000000
   30       43.534955   0.000000
   31       46.573576   0.000000
   32       46.573577   0.000000
   33       47.943767   0.000000
   34       49.380779   0.000000
   35       49.380780   0.000000
   36       50.406676   0.000000
   37       50.406678   0.000000
   38       50.932021   0.000000
   39       51.506343   0.000000
   40       52.721010   0.000000
   41       52.721013   0.000000
   42       53.482559   0.000000
   43       54.003626   0.000000
   44       56.425605   0.000000
   45       56.425608   0.000000
   46       57.139288   0.000000
   47       57.525794   0.000000
   48       57.525795   0.000000
   49       58.725864   0.000000
   50       59.808351   0.000000
   51       60.243197   0.000000
   52       60.243198   0.000000
   53       60.453748   0.000000
   54       63.743629   0.000000
   55       63.743631   0.000000
   56       65.222243   0.000000
   57       65.222245   0.000000
   58       65.457067   0.000000
   59       69.283017   0.000000
   60       69.283018   0.000000
   61       70.441080   0.000000
   62       72.951065   0.000000
   63       74.109554   0.000000
   64       74.109556   0.000000
   65       75.015781   0.000000
   66       79.798569   0.000000
   67       79.798572   0.000000
   68       84.445481   0.000000
   69       84.445485   0.000000
   70       84.621412   0.000000
   71       86.013846   0.000000
   72       86.013850   0.000000
   73       86.658782   0.000000
   74       88.582368   0.000000
   75       89.035573   0.000000
   76       90.383664   0.000000
   77       90.383665   0.000000
   78       90.476243   0.000000
   79       90.476245   0.000000
   80       93.955729   0.000000
   81       93.955731   0.000000
   82       94.410782   0.000000
   83       95.326863   0.000000
   84       95.926151   0.000000
   85       95.926154   0.000000
   86       95.996919   0.000000
   87       97.982578   0.000000
   88       97.982583   0.000000
   89       99.268126   0.000000
   90       99.268130   0.000000
   91       99.416850   0.000000
   92       99.616144   0.000000
   93      100.662355   0.000000
   94      100.662357   0.000000
   95      101.214704   0.000000
   96      101.214707   0.000000
   97      101.633740   0.000000
   98      101.908298   0.000000
   99      104.956380   0.000000
  100      104.956383   0.000000
  101      105.467657   0.000000
  102      106.554328   0.000000
  103      106.857331   0.000000
  104      107.120102   0.000000
  105      107.120105   0.000000
  106      108.165233   0.000000
  107      108.199519   0.000000
  108      108.199521   0.000000
  109      110.393227   0.000000
  110      110.393228   0.000000
  111      111.155802   0.000000
  112      111.155803   0.000000
  113      112.624360   0.000000
  114      113.336144   0.000000
  115      113.336147   0.000000
  116      113.742372   0.000000
  117      114.360224   0.000000
  118      114.360227   0.000000
  119      116.517727   0.000000
  120      116.517730   0.000000
  121      117.215259   0.000000
  122      117.462575   0.000000
  123      120.656502   0.000000
  124      120.656507   0.000000
  125      121.714323   0.000000
  126      122.596156   0.000000
  127      122.596160   0.000000
  128      123.284636   0.000000
 
  0.1428571E+00  0.1428571E+00  0.1387779E-16  0.5830904E-02
    1      -24.473628   1.000000
    2       -9.637193   1.000000
    3       -9.418682   1.000000
    4       -9.418340   1.000000
    5        5.805020   0.000000
    6       12.259860   0.000000
    7       13.849972   0.000000
    8       13.852653   0.000000
    9       11.582201   0.000000
   10       13.155748   0.000000
   11       17.272961   0.000000
   12       17.934984   0.000000
   13       18.876416   0.000000
   14       18.876416   0.000000
   15       23.635538   0.000000
   16       24.274736   0.000000
   17       24.274737   0.000000
   18       25.205907   0.000000
   19       27.208875   0.000000
   20       29.452975   0.000000
   21       30.802718   0.000000
   22       30.802718   0.000000
   23       32.522064   0.000000
   24       37.898871   0.000000
   25       38.372475   0.000000
   26       38.372475   0.000000
   27       38.872238   0.000000
   28       41.098069   0.000000
   29       43.973764   0.000000
   30       43.973765   0.000000
   31       45.444773   0.000000
   32       46.315069   0.000000
   33       47.277633   0.000000
   34       47.277633   0.000000
   35       49.041156   0.000000
   36       50.095427   0.000000
   37       51.515100   0.000000
   38       51.515101   0.000000
   39       52.945865   0.000000
   40       53.319557   0.000000
   41       53.319558   0.000000
   42       53.593445   0.000000
   43       54.533246   0.000000
   44       56.126904   0.000000
   45       56.555571   0.000000
   46       57.012001   0.000000
   47       57.012001   0.000000
   48       57.377830   0.000000
   49       58.322943   0.000000
   50       58.883736   0.000000
   51       58.883736   0.000000
   52       60.342751   0.000000
   53       62.296227   0.000000
   54       62.296227   0.000000
   55       65.022011   0.000000
   56       65.847031   0.000000
   57       67.921885   0.000000
   58       68.253979   0.000000
   59       68.253980   0.000000
   60       69.097625   0.000000
   61       71.504443   0.000000
   62       72.040109   0.000000
   63       72.040112   0.000000
   64       75.847592   0.000000
   65       76.624496   0.000000
   66       78.897101   0.000000
   67       78.897102   0.000000
   68       81.323557   0.000000
   69       82.604123   0.000000
   70       85.124071   0.000000
   71       85.806216   0.000000
   72       85.806217   0.000000
   73       88.516393   0.000000
   74       89.541177   0.000000
   75       89.541177   0.000000
   76       90.164939   0.000000
   77       90.357177   0.000000
   78       90.357178   0.000000
   79       90.625366   0.000000
   80       92.215285   0.000000
   81       92.215285   0.000000
   82       92.264734   0.000000
   83       93.530170   0.000000
   84       93.779191   0.000000
   85       96.751777   0.000000
   86       97.005651   0.000000
   87       97.005652   0.000000
   88       97.104654   0.000000
   89       97.330455   0.000000
   90       99.217686   0.000000
   91       99.217686   0.000000
   92       99.334629   0.000000
   93      101.872016   0.000000
   94      101.872016   0.000000
   95      102.097831   0.000000
   96      102.534569   0.000000
   97      102.801724   0.000000
   98      105.045714   0.000000
   99      105.237450   0.000000
  100      105.237452   0.000000
  101      105.249303   0.000000
  102      106.281650   0.000000
  103      107.779405   0.000000
  104      107.779405   0.000000
  105      108.508570   0.000000
  106      108.663463   0.000000
  107      108.663463   0.000000
  108      108.985156   0.000000
  109      109.002577   0.000000
  110      110.220857   0.000000
  111      110.220857   0.000000
  112      110.435303   0.000000
  113      111.141680   0.000000
  114      113.803607   0.000000
  115      115.158478   0.000000
  116      115.415524   0.000000
  117      115.415525   0.000000
  118      115.853724   0.000000
  119      115.853724   0.000000
  120      116.051169   0.000000
  121      116.422271   0.000000
  122      117.087557   0.000000
  123      117.730526   0.000000
  124      117.730526   0.000000
  125      118.315849   0.000000
  126      120.558039   0.000000
  127      124.674950   0.000000
  128      124.915434   0.000000
 
  0.2857143E+00  0.1428571E+00  0.2775558E-16  0.5830904E-02
    1      -24.397856   1.000000
    2      -10.135170   1.000000
    3       -9.516428   1.000000
    4       -9.502995   1.000000
    5        6.877289   0.000000
    6       11.307535   0.000000
    7       12.817226   0.000000
    8       14.026096   0.000000
    9       12.003080   0.000000
   10       13.508072   0.000000
   11       16.802300   0.000000
   12       19.150579   0.000000
   13       19.730868   0.000000
   14       20.025847   0.000000
   15       22.294751   0.000000
   16       22.661761   0.000000
   17       24.067561   0.000000
   18       26.592706   0.000000
   19       27.127852   0.000000
   20       28.788702   0.000000
   21       31.258827   0.000000
   22       31.742244   0.000000
   23       33.864572   0.000000
   24       35.923429   0.000000
   25       37.096216   0.000000
   26       38.505504   0.000000
   27       40.145411   0.000000
   28       41.019744   0.000000
   29       41.856737   0.000000
   30       42.600720   0.000000
   31       44.310835   0.000000
   32       45.012691   0.000000
   33       45.952865   0.000000
   34       47.433511   0.000000
   35       47.487009   0.000000
   36       48.780213   0.000000
   37       49.533732   0.000000
   38       50.488159   0.000000
   39       52.350863   0.000000
   40       53.140832   0.000000
   41       53.356390   0.000000
   42       53.894815   0.000000
   43       54.174774   0.000000
   44       56.311733   0.000000
   45       56.737531   0.000000
   46       57.820631   0.000000
   47       57.919705   0.000000
   48       60.555521   0.000000
   49       60.863891   0.000000
   50       61.233239   0.000000
   51       62.420175   0.000000
   52       63.354071   0.000000
   53       63.832174   0.000000
   54       65.373700   0.000000
   55       66.462054   0.000000
   56       67.448603   0.000000
   57       68.080410   0.000000
   58       68.931524   0.000000
   59       70.684906   0.000000
   60       70.781768   0.000000
   61       72.078899   0.000000
   62       72.767004   0.000000
   63       73.347202   0.000000
   64       74.037228   0.000000
   65       76.480779   0.000000
   66       77.588166   0.000000
   67       78.029419   0.000000
   68       81.235512   0.000000
   69       81.321944   0.000000
   70       81.571197   0.000000
   71       83.450717   0.000000
   72       84.436086   0.000000
   73       84.763114   0.000000
   74       85.661677   0.000000
   75       86.783603   0.000000
   76       88.228405   0.000000
   77       88.304710   0.000000
   78       89.195242   0.000000
   79       89.417164   0.000000
   80       90.218495   0.000000
   81       90.243287   0.000000
   82       91.076342   0.000000
   83       91.921426   0.000000
   84       93.304854   0.000000
   85       94.139609   0.000000
   86       95.240645   0.000000
   87       96.995324   0.000000
   88       97.809698   0.000000
   89       98.579918   0.000000
   90       98.950070   0.000000
   91       99.402681   0.000000
   92       99.969866   0.000000
   93      100.507314   0.000000
   94      100.790464   0.000000
   95      102.092521   0.000000
   96      103.270439   0.000000
   97      103.906646   0.000000
   98      104.985031   0.000000
   99      105.165353   0.000000
  100      106.376451   0.000000
  101      106.502878   0.000000
  102      107.129928   0.000000
  103      107.409114   0.000000
  104      107.657507   0.000000
  105      108.485301   0.000000
  106      108.692926   0.000000
  107      109.321128   0.000000
  108      109.577707   0.000000
  109      109.940865   0.000000
  110      111.220995   0.000000
  111      111.729010   0.000000
  112      111.867032   0.000000
  113      113.735051   0.000000
  114      115.613126   0.000000
  115      116.734418   0.000000
  116      116.798573   0.000000
  117      117.085270   0.000000
  118      117.790093   0.000000
  119      117.960948   0.000000
  120      118.083528   0.000000
  121      118.499399   0.000000