 vasp.5.4.4.18Apr17-6-g9f103f2a35 (build Nov 03 2018 10:20:46) complex          
  
 executed on             LinuxIFC date 2018.12.14  04:13:44
 running on   56 total cores
 distrk:  each k-point on    4 cores,   14 groups
 distr:  one band on NCORES_PER_BAND=   1 cores,    4 groups


--------------------------------------------------------------------------------------------------------


 INCAR:
 POTCAR:    PAW_PBE Ar_GW 21Aug2013               

 ----------------------------------------------------------------------------- 
|                                                                             |
|           W    W    AA    RRRRR   N    N  II  N    N   GGGG   !!!           |
|           W    W   A  A   R    R  NN   N  II  NN   N  G    G  !!!           |
|           W    W  A    A  R    R  N N  N  II  N N  N  G       !!!           |
|           W WW W  AAAAAA  RRRRR   N  N N  II  N  N N  G  GGG   !            |
|           WW  WW  A    A  R   R   N   NN  II  N   NN  G    G                |
|           W    W  A    A  R    R  N    N  II  N    N   GGGG   !!!           |
|                                                                             |
|      For optimal performance we recommend to set                            |
|        NCORE= 4 - approx SQRT( number of cores)                             |
|      NCORE specifies how many cores store one orbital (NPAR=cpu/NCORE).     |
|      This setting can  greatly improve the performance of VASP for DFT.     |
|      The default,   NCORE=1            might be grossly inefficient         |
|      on modern multi-core architectures or massively parallel machines.     |
|      Do your own testing !!!!                                               |
|      Unfortunately you need to use the default for GW and RPA calculations. |
|      (for HF NCORE is supported but not extensively tested yet)             |
|                                                                             |
 ----------------------------------------------------------------------------- 


 ----------------------------------------------------------------------------- 
|                                                                             |
|           W    W    AA    RRRRR   N    N  II  N    N   GGGG   !!!           |
|           W    W   A  A   R    R  NN   N  II  NN   N  G    G  !!!           |
|           W    W  A    A  R    R  N N  N  II  N N  N  G       !!!           |
|           W WW W  AAAAAA  RRRRR   N  N N  II  N  N N  G  GGG   !            |
|           WW  WW  A    A  R   R   N   NN  II  N   NN  G    G                |
|           W    W  A    A  R    R  N    N  II  N    N   GGGG   !!!           |
|                                                                             |
|      You have enabled k-point parallelism (KPAR>1).                         |
|      This developmental code was originally  written by Paul Kent at ORNL,  |
|      and carefully double checked in Vienna.                                |
|      GW as well as linear response parallelism added by Martijn Marsman     |
|      and Georg Kresse.                                                      |
|      Carefully verify results versus KPAR=1.                                |
|      Report problems to Paul Kent and Vienna.                               |
|                                                                             |
 ----------------------------------------------------------------------------- 

 POTCAR:    PAW_PBE Ar_GW 21Aug2013               
  local pseudopotential read in
  partial core-charges read in
  partial kinetic energy density read in
  kinetic energy density of atom read in
  atomic valenz-charges read in
  non local Contribution for L=           0  read in
    real space projection operators read in
  non local Contribution for L=           0  read in
    real space projection operators read in
  non local Contribution for L=           1  read in
    real space projection operators read in
  non local Contribution for L=           1  read in
    real space projection operators read in
  non local Contribution for L=           2  read in
    real space projection operators read in
  non local Contribution for L=           2  read in
    real space projection operators read in
    PAW grid and wavefunctions read in
 
   number of l-projection  operators is LMAX  =           6
   number of lm-projection operators is LMMAX =          18
 
  PAW_PBE Ar_GW 21Aug2013               :
 energy of atom  1       EATOM= -579.0493
 kinetic energy error for atom=    0.0359 (will be added to EATOM!!)
 
 
 POSCAR: Ar_FCC                                  
  positions in direct lattice
  velocities in cartesian coordinates
 exchange correlation table for  LEXCH =        8
   RHO(1)=    0.500       N(1)  =     2000
   RHO(2)=  100.500       N(2)  =     4000
 


--------------------------------------------------------------------------------------------------------


 ion  position               nearest neighbor table
   1  0.000  0.000  0.000-
 

IMPORTANT INFORMATION: All symmetrisations will be switched off!
NOSYMM: (Re-)initialisation of all symmetry stuff for point group C_1.

 
 
 KPOINTS: k-points                                

Automatic generation of k-mesh.
Space group operators:
 irot       det(A)        alpha          n_x          n_y          n_z        tau_x        tau_y        tau_z
    1     1.000000     0.000000     1.000000     0.000000     0.000000     0.000000     0.000000     0.000000
 
 Subroutine IBZKPT returns following result:
 ===========================================
 
 Found    172 irreducible k-points:
 
 Following reciprocal coordinates:
            Coordinates               Weight
  0.000000  0.000000  0.000000      1.000000
  0.142857 -0.000000  0.000000      2.000000
  0.285714 -0.000000  0.000000      2.000000
  0.428571 -0.000000  0.000000      2.000000
 -0.000000  0.142857  0.000000      2.000000
  0.142857  0.142857  0.000000      2.000000
  0.285714  0.142857  0.000000      2.000000
  0.428571  0.142857  0.000000      2.000000
 -0.428571  0.142857 -0.000000      2.000000
 -0.285714  0.142857 -0.000000      2.000000
 -0.142857  0.142857 -0.000000      2.000000
  0.000000  0.285714  0.000000      2.000000
  0.142857  0.285714  0.000000      2.000000
  0.285714  0.285714  0.000000      2.000000
  0.428571  0.285714  0.000000      2.000000
 -0.428571  0.285714 -0.000000      2.000000
 -0.285714  0.285714  0.000000      2.000000
 -0.142857  0.285714  0.000000      2.000000
 -0.000000  0.428571 -0.000000      2.000000
  0.142857  0.428571  0.000000      2.000000
  0.285714  0.428571  0.000000      2.000000
  0.428571  0.428571  0.000000      2.000000
 -0.428571  0.428571 -0.000000      2.000000
 -0.285714  0.428571 -0.000000      2.000000
 -0.142857  0.428571  0.000000      2.000000
  0.000000  0.000000  0.142857      2.000000
  0.142857  0.000000  0.142857      2.000000
  0.285714 -0.000000  0.142857      2.000000
  0.428571 -0.000000  0.142857      2.000000
 -0.428571  0.000000  0.142857      2.000000
 -0.285714 -0.000000  0.142857      2.000000
 -0.142857  0.000000  0.142857      2.000000
  0.000000  0.142857  0.142857      2.000000
  0.142857  0.142857  0.142857      2.000000
  0.285714  0.142857  0.142857      2.000000
  0.428571  0.142857  0.142857      2.000000
 -0.428571  0.142857  0.142857      2.000000
 -0.285714  0.142857  0.142857      2.000000
 -0.142857  0.142857  0.142857      2.000000
  0.000000  0.285714  0.142857      2.000000
  0.142857  0.285714  0.142857      2.000000
  0.285714  0.285714  0.142857      2.000000
  0.428571  0.285714  0.142857      2.000000
 -0.428571  0.285714  0.142857      2.000000
 -0.285714  0.285714  0.142857      2.000000
 -0.142857  0.285714  0.142857      2.000000
 -0.000000  0.428571  0.142857      2.000000
  0.142857  0.428571  0.142857      2.000000
  0.285714  0.428571  0.142857      2.000000
  0.428571  0.428571  0.142857      2.000000
 -0.428571  0.428571  0.142857      2.000000
 -0.285714  0.428571  0.142857      2.000000
 -0.142857  0.428571  0.142857      2.000000
  0.000000 -0.428571  0.142857      2.000000
  0.142857 -0.428571  0.142857      2.000000
  0.285714 -0.428571  0.142857      2.000000
  0.428571 -0.428571  0.142857      2.000000
 -0.428571 -0.428571  0.142857      2.000000
 -0.285714 -0.428571  0.142857      2.000000
 -0.142857 -0.428571  0.142857      2.000000
  0.000000 -0.285714  0.142857      2.000000
  0.142857 -0.285714  0.142857      2.000000
  0.285714 -0.285714  0.142857      2.000000
  0.428571 -0.285714  0.142857      2.000000
 -0.428571 -0.285714  0.142857      2.000000
 -0.285714 -0.285714  0.142857      2.000000
 -0.142857 -0.285714  0.142857      2.000000
  0.000000 -0.142857  0.142857      2.000000
  0.142857 -0.142857  0.142857      2.000000
  0.285714 -0.142857  0.142857      2.000000
  0.428571 -0.142857  0.142857      2.000000
 -0.428571 -0.142857  0.142857      2.000000
 -0.285714 -0.142857  0.142857      2.000000
 -0.142857 -0.142857  0.142857      2.000000
  0.000000  0.000000  0.285714      2.000000
  0.142857  0.000000  0.285714      2.000000
  0.285714 -0.000000  0.285714      2.000000
  0.428571 -0.000000  0.285714      2.000000
 -0.428571  0.000000  0.285714      2.000000
 -0.285714  0.000000  0.285714      2.000000
 -0.142857  0.000000  0.285714      2.000000
  0.000000  0.142857  0.285714      2.000000
  0.142857  0.142857  0.285714      2.000000
  0.285714  0.142857  0.285714      2.000000
  0.428571  0.142857  0.285714      2.000000
 -0.428571  0.142857  0.285714      2.000000
 -0.285714  0.142857  0.285714      2.000000
 -0.142857  0.142857  0.285714      2.000000
  0.000000  0.285714  0.285714      2.000000
  0.142857  0.285714  0.285714      2.000000
  0.285714  0.285714  0.285714      2.000000
  0.428571  0.285714  0.285714      2.000000
 -0.428571  0.285714  0.285714      2.000000
 -0.285714  0.285714  0.285714      2.000000
 -0.142857  0.285714  0.285714      2.000000
  0.000000  0.428571  0.285714      2.000000
  0.142857  0.428571  0.285714      2.000000
  0.285714  0.428571  0.285714      2.000000
  0.428571  0.428571  0.285714      2.000000
 -0.428571  0.428571  0.285714      2.000000
 -0.285714  0.428571  0.285714      2.000000
 -0.142857  0.428571  0.285714      2.000000
  0.000000 -0.428571  0.285714      2.000000
  0.142857 -0.428571  0.285714      2.000000
  0.285714 -0.428571  0.285714      2.000000
  0.428571 -0.428571  0.285714      2.000000
 -0.428571 -0.428571  0.285714      2.000000
 -0.285714 -0.428571  0.285714      2.000000
 -0.142857 -0.428571  0.285714      2.000000
  0.000000 -0.285714  0.285714      2.000000
  0.142857 -0.285714  0.285714      2.000000
  0.285714 -0.285714  0.285714      2.000000
  0.428571 -0.285714  0.285714      2.000000
 -0.428571 -0.285714  0.285714      2.000000
 -0.285714 -0.285714  0.285714      2.000000
 -0.142857 -0.285714  0.285714      2.000000
  0.000000 -0.142857  0.285714      2.000000
  0.142857 -0.142857  0.285714      2.000000
  0.285714 -0.142857  0.285714      2.000000
  0.428571 -0.142857  0.285714      2.000000
 -0.428571 -0.142857  0.285714      2.000000
 -0.285714 -0.142857  0.285714      2.000000
 -0.142857 -0.142857  0.285714      2.000000
 -0.000000  0.000000  0.428571      2.000000
  0.142857 -0.000000  0.428571      2.000000
  0.285714 -0.000000  0.428571      2.000000
  0.428571 -0.000000  0.428571      2.000000
 -0.428571  0.000000  0.428571      2.000000
 -0.285714  0.000000  0.428571      2.000000
 -0.142857 -0.000000  0.428571      2.000000
  0.000000  0.142857  0.428571      2.000000
  0.142857  0.142857  0.428571      2.000000
  0.285714  0.142857  0.428571      2.000000
  0.428571  0.142857  0.428571      2.000000
 -0.428571  0.142857  0.428571      2.000000
 -0.285714  0.142857  0.428571      2.000000
 -0.142857  0.142857  0.428571      2.000000
 -0.000000  0.285714  0.428571      2.000000
  0.142857  0.285714  0.428571      2.000000
  0.285714  0.285714  0.428571      2.000000
  0.428571  0.285714  0.428571      2.000000
 -0.428571  0.285714  0.428571      2.000000
 -0.285714  0.285714  0.428571      2.000000
 -0.142857  0.285714  0.428571      2.000000
 -0.000000  0.428571  0.428571      2.000000
  0.142857  0.428571  0.428571      2.000000
  0.285714  0.428571  0.428571      2.000000
  0.428571  0.428571  0.428571      2.000000
 -0.428571  0.428571  0.428571      2.000000
 -0.285714  0.428571  0.428571      2.000000
 -0.142857  0.428571  0.428571      2.000000
 -0.000000 -0.428571  0.428571      2.000000
  0.142857 -0.428571  0.428571      2.000000
  0.285714 -0.428571  0.428571      2.000000
  0.428571 -0.428571  0.428571      2.000000
 -0.428571 -0.428571  0.428571      2.000000
 -0.285714 -0.428571  0.428571      2.000000
 -0.142857 -0.428571  0.428571      2.000000
 -0.000000 -0.285714  0.428571      2.000000
  0.142857 -0.285714  0.428571      2.000000
  0.285714 -0.285714  0.428571      2.000000
  0.428571 -0.285714  0.428571      2.000000
 -0.428571 -0.285714  0.428571      2.000000
 -0.285714 -0.285714  0.428571      2.000000
 -0.142857 -0.285714  0.428571      2.000000
  0.000000 -0.142857  0.428571      2.000000
  0.142857 -0.142857  0.428571      2.000000
  0.285714 -0.142857  0.428571      2.000000
  0.428571 -0.142857  0.428571      2.000000
 -0.428571 -0.142857  0.428571      2.000000
 -0.285714 -0.142857  0.428571      2.000000
 -0.142857 -0.142857  0.428571      2.000000
 
 Following cartesian coordinates:
            Coordinates               Weight
  0.000000  0.000000  0.000000      1.000000
  0.039686 -0.022913 -0.016202      2.000000
  0.079372 -0.045825 -0.032403      2.000000
  0.119058 -0.068738 -0.048605      2.000000
  0.000000  0.045825 -0.016202      2.000000
  0.039686  0.022913 -0.032403      2.000000
  0.079372  0.000000 -0.048605      2.000000
  0.119058 -0.022913 -0.064807      2.000000
 -0.119058  0.114563  0.032403      2.000000
 -0.079372  0.091651  0.016202      2.000000
 -0.039686  0.068738  0.000000      2.000000
  0.000000  0.091651 -0.032403      2.000000
  0.039686  0.068738 -0.048605      2.000000
  0.079372  0.045825 -0.064807      2.000000
  0.119058  0.022913 -0.081008      2.000000
 -0.119058  0.160389  0.016202      2.000000
 -0.079372  0.137476  0.000000      2.000000
 -0.039686  0.114563 -0.016202      2.000000
  0.000000  0.137476 -0.048605      2.000000
  0.039686  0.114563 -0.064807      2.000000
  0.079372  0.091651 -0.081008      2.000000
  0.119058  0.068738 -0.097210      2.000000
 -0.119058  0.206214  0.000000      2.000000
 -0.079372  0.183301 -0.016202      2.000000
 -0.039686  0.160389 -0.032403      2.000000
 -0.000000  0.000000  0.048605      2.000000
  0.039686 -0.022913  0.032403      2.000000
  0.079372 -0.045825  0.016202      2.000000
  0.119058 -0.068738 -0.000000      2.000000
 -0.119058  0.068738  0.097210      2.000000
 -0.079372  0.045825  0.081008      2.000000
 -0.039686  0.022913  0.064807      2.000000
 -0.000000  0.045825  0.032403      2.000000
  0.039686  0.022913  0.016202      2.000000
  0.079372  0.000000  0.000000      2.000000
  0.119058 -0.022913 -0.016202      2.000000
 -0.119058  0.114563  0.081008      2.000000
 -0.079372  0.091651  0.064807      2.000000
 -0.039686  0.068738  0.048605      2.000000
 -0.000000  0.091651  0.016202      2.000000
  0.039686  0.068738  0.000000      2.000000
  0.079372  0.045825 -0.016202      2.000000
  0.119058  0.022913 -0.032403      2.000000
 -0.119058  0.160389  0.064807      2.000000
 -0.079372  0.137476  0.048605      2.000000
 -0.039686  0.114563  0.032403      2.000000
 -0.000000  0.137476  0.000000      2.000000
  0.039686  0.114563 -0.016202      2.000000
  0.079372  0.091651 -0.032403      2.000000
  0.119058  0.068738 -0.048605      2.000000
 -0.119058  0.206214  0.048605      2.000000
 -0.079372  0.183301  0.032403      2.000000
 -0.039686  0.160389  0.016202      2.000000
 -0.000000 -0.137476  0.097210      2.000000
  0.039686 -0.160389  0.081008      2.000000
  0.079372 -0.183301  0.064807      2.000000
  0.119058 -0.206214  0.048605      2.000000
 -0.119058 -0.068738  0.145815      2.000000
 -0.079372 -0.091651  0.129614      2.000000
 -0.039686 -0.114563  0.113412      2.000000
 -0.000000 -0.091651  0.081008      2.000000
  0.039686 -0.114563  0.064807      2.000000
  0.079372 -0.137476  0.048605      2.000000
  0.119058 -0.160389  0.032403      2.000000
 -0.119058 -0.022913  0.129614      2.000000
 -0.079372 -0.045825  0.113412      2.000000
 -0.039686 -0.068738  0.097210      2.000000
 -0.000000 -0.045825  0.064807      2.000000
  0.039686 -0.068738  0.048605      2.000000
  0.079372 -0.091651  0.032403      2.000000
  0.119058 -0.114563  0.016202      2.000000
 -0.119058  0.022913  0.113412      2.000000
 -0.079372 -0.000000  0.097210      2.000000
 -0.039686 -0.022913  0.081008      2.000000
 -0.000000  0.000000  0.097210      2.000000
  0.039686 -0.022913  0.081008      2.000000
  0.079372 -0.045825  0.064807      2.000000
  0.119058 -0.068738  0.048605      2.000000
 -0.119058  0.068738  0.145815      2.000000
 -0.079372  0.045825  0.129614      2.000000
 -0.039686  0.022913  0.113412      2.000000
 -0.000000  0.045825  0.081008      2.000000
  0.039686  0.022913  0.064807      2.000000
  0.079372  0.000000  0.048605      2.000000
  0.119058 -0.022913  0.032403      2.000000
 -0.119058  0.114563  0.129614      2.000000
 -0.079372  0.091651  0.113412      2.000000
 -0.039686  0.068738  0.097210      2.000000
 -0.000000  0.091651  0.064807      2.000000
  0.039686  0.068738  0.048605      2.000000
  0.079372  0.045825  0.032403      2.000000
  0.119058  0.022913  0.016202      2.000000
 -0.119058  0.160389  0.113412      2.000000
 -0.079372  0.137476  0.097210      2.000000
 -0.039686  0.114563  0.081008      2.000000
 -0.000000  0.137476  0.048605      2.000000
  0.039686  0.114563  0.032403      2.000000
  0.079372  0.091651  0.016202      2.000000
  0.119058  0.068738  0.000000      2.000000
 -0.119058  0.206214  0.097210      2.000000
 -0.079372  0.183301  0.081008      2.000000
 -0.039686  0.160389  0.064807      2.000000
 -0.000000 -0.137476  0.145815      2.000000
  0.039686 -0.160389  0.129614      2.000000
  0.079372 -0.183301  0.113412      2.000000
  0.119058 -0.206214  0.097210      2.000000
 -0.119058 -0.068738  0.194420      2.000000
 -0.079372 -0.091651  0.178219      2.000000
 -0.039686 -0.114563  0.162017      2.000000
 -0.000000 -0.091651  0.129614      2.000000
  0.039686 -0.114563  0.113412      2.000000
  0.079372 -0.137476  0.097210      2.000000
  0.119058 -0.160389  0.081008      2.000000
 -0.119058 -0.022913  0.178219      2.000000
 -0.079372 -0.045825  0.162017      2.000000
 -0.039686 -0.068738  0.145815      2.000000
 -0.000000 -0.045825  0.113412      2.000000
  0.039686 -0.068738  0.097210      2.000000
  0.079372 -0.091651  0.081008      2.000000
  0.119058 -0.114563  0.064807      2.000000
 -0.119058  0.022913  0.162017      2.000000
 -0.079372 -0.000000  0.145815      2.000000
 -0.039686 -0.022913  0.129614      2.000000
 -0.000000  0.000000  0.145815      2.000000
  0.039686 -0.022913  0.129614      2.000000
  0.079372 -0.045825  0.113412      2.000000
  0.119058 -0.068738  0.097210      2.000000
 -0.119058  0.068738  0.194420      2.000000
 -0.079372  0.045825  0.178219      2.000000
 -0.039686  0.022913  0.162017      2.000000
 -0.000000  0.045825  0.129614      2.000000
  0.039686  0.022913  0.113412      2.000000
  0.079372  0.000000  0.097210      2.000000
  0.119058 -0.022913  0.081008      2.000000
 -0.119058  0.114563  0.178219      2.000000
 -0.079372  0.091651  0.162017      2.000000
 -0.039686  0.068738  0.145815      2.000000
 -0.000000  0.091651  0.113412      2.000000
  0.039686  0.068738  0.097210      2.000000
  0.079372  0.045825  0.081008      2.000000
  0.119058  0.022913  0.064807      2.000000
 -0.119058  0.160389  0.162017      2.000000
 -0.079372  0.137476  0.145815      2.000000
 -0.039686  0.114563  0.129614      2.000000
 -0.000000  0.137476  0.097210      2.000000
  0.039686  0.114563  0.081008      2.000000
  0.079372  0.091651  0.064807      2.000000
  0.119058  0.068738  0.048605      2.000000
 -0.119058  0.206214  0.145815      2.000000
 -0.079372  0.183301  0.129614      2.000000
 -0.039686  0.160389  0.113412      2.000000
 -0.000000 -0.137476  0.194420      2.000000
  0.039686 -0.160389  0.178219      2.000000
  0.079372 -0.183301  0.162017      2.000000
  0.119058 -0.206214  0.145815      2.000000
 -0.119058 -0.068738  0.243025      2.000000
 -0.079372 -0.091651  0.226824      2.000000
 -0.039686 -0.114563  0.210622      2.000000
 -0.000000 -0.091651  0.178219      2.000000
  0.039686 -0.114563  0.162017      2.000000
  0.079372 -0.137476  0.145815      2.000000
  0.119058 -0.160389  0.129614      2.000000
 -0.119058 -0.022913  0.226824      2.000000
 -0.079372 -0.045825  0.210622      2.000000
 -0.039686 -0.068738  0.194420      2.000000
 -0.000000 -0.045825  0.162017      2.000000
  0.039686 -0.068738  0.145815      2.000000
  0.079372 -0.091651  0.129614      2.000000
  0.119058 -0.114563  0.113412      2.000000
 -0.119058  0.022913  0.210622      2.000000
 -0.079372 -0.000000  0.194420      2.000000
 -0.039686 -0.022913  0.178219      2.000000
 
 
 Subroutine IBZKPT_HF returns following result:
 ==============================================
 
 Found    343 k-points in 1st BZ
 the following    343 k-points will be used (e.g. in the exchange kernel)
 Following reciprocal coordinates:   # in IRBZ
  0.000000  0.000000  0.000000    0.00291545   1 t-inv F
  0.142857 -0.000000  0.000000    0.00291545   2 t-inv F
  0.285714 -0.000000  0.000000    0.00291545   3 t-inv F
  0.428571 -0.000000  0.000000    0.00291545   4 t-inv F
 -0.000000  0.142857  0.000000    0.00291545   5 t-inv F
  0.142857  0.142857  0.000000    0.00291545   6 t-inv F
  0.285714  0.142857  0.000000    0.00291545   7 t-inv F
  0.428571  0.142857  0.000000    0.00291545   8 t-inv F
 -0.428571  0.142857 -0.000000    0.00291545   9 t-inv F
 -0.285714  0.142857 -0.000000    0.00291545  10 t-inv F
 -0.142857  0.142857 -0.000000    0.00291545  11 t-inv F
  0.000000  0.285714  0.000000    0.00291545  12 t-inv F
  0.142857  0.285714  0.000000    0.00291545  13 t-inv F
  0.285714  0.285714  0.000000    0.00291545  14 t-inv F
  0.428571  0.285714  0.000000    0.00291545  15 t-inv F
 -0.428571  0.285714 -0.000000    0.00291545  16 t-inv F
 -0.285714  0.285714  0.000000    0.00291545  17 t-inv F
 -0.142857  0.285714  0.000000    0.00291545  18 t-inv F
 -0.000000  0.428571 -0.000000    0.00291545  19 t-inv F
  0.142857  0.428571  0.000000    0.00291545  20 t-inv F
  0.285714  0.428571  0.000000    0.00291545  21 t-inv F
  0.428571  0.428571  0.000000    0.00291545  22 t-inv F
 -0.428571  0.428571 -0.000000    0.00291545  23 t-inv F
 -0.285714  0.428571 -0.000000    0.00291545  24 t-inv F
 -0.142857  0.428571  0.000000    0.00291545  25 t-inv F
  0.000000  0.000000  0.142857    0.00291545  26 t-inv F
  0.142857  0.000000  0.142857    0.00291545  27 t-inv F
  0.285714 -0.000000  0.142857    0.00291545  28 t-inv F
  0.428571 -0.000000  0.142857    0.00291545  29 t-inv F
 -0.428571  0.000000  0.142857    0.00291545  30 t-inv F
 -0.285714 -0.000000  0.142857    0.00291545  31 t-inv F
 -0.142857  0.000000  0.142857    0.00291545  32 t-inv F
  0.000000  0.142857  0.142857    0.00291545  33 t-inv F
  0.142857  0.142857  0.142857    0.00291545  34 t-inv F
  0.285714  0.142857  0.142857    0.00291545  35 t-inv F
  0.428571  0.142857  0.142857    0.00291545  36 t-inv F
 -0.428571  0.142857  0.142857    0.00291545  37 t-inv F
 -0.285714  0.142857  0.142857    0.00291545  38 t-inv F
 -0.142857  0.142857  0.142857    0.00291545  39 t-inv F
  0.000000  0.285714  0.142857    0.00291545  40 t-inv F
  0.142857  0.285714  0.142857    0.00291545  41 t-inv F
  0.285714  0.285714  0.142857    0.00291545  42 t-inv F
  0.428571  0.285714  0.142857    0.00291545  43 t-inv F
 -0.428571  0.285714  0.142857    0.00291545  44 t-inv F
 -0.285714  0.285714  0.142857    0.00291545  45 t-inv F
 -0.142857  0.285714  0.142857    0.00291545  46 t-inv F
 -0.000000  0.428571  0.142857    0.00291545  47 t-inv F
  0.142857  0.428571  0.142857    0.00291545  48 t-inv F
  0.285714  0.428571  0.142857    0.00291545  49 t-inv F
  0.428571  0.428571  0.142857    0.00291545  50 t-inv F
 -0.428571  0.428571  0.142857    0.00291545  51 t-inv F
 -0.285714  0.428571  0.142857    0.00291545  52 t-inv F
 -0.142857  0.428571  0.142857    0.00291545  53 t-inv F
  0.000000 -0.428571  0.142857    0.00291545  54 t-inv F
  0.142857 -0.428571  0.142857    0.00291545  55 t-inv F
  0.285714 -0.428571  0.142857    0.00291545  56 t-inv F
  0.428571 -0.428571  0.142857    0.00291545  57 t-inv F
 -0.428571 -0.428571  0.142857    0.00291545  58 t-inv F
 -0.285714 -0.428571  0.142857    0.00291545  59 t-inv F
 -0.142857 -0.428571  0.142857    0.00291545  60 t-inv F
  0.000000 -0.285714  0.142857    0.00291545  61 t-inv F
  0.142857 -0.285714  0.142857    0.00291545  62 t-inv F
  0.285714 -0.285714  0.142857    0.00291545  63 t-inv F
  0.428571 -0.285714  0.142857    0.00291545  64 t-inv F
 -0.428571 -0.285714  0.142857    0.00291545  65 t-inv F
 -0.285714 -0.285714  0.142857    0.00291545  66 t-inv F
 -0.142857 -0.285714  0.142857    0.00291545  67 t-inv F
  0.000000 -0.142857  0.142857    0.00291545  68 t-inv F
  0.142857 -0.142857  0.142857    0.00291545  69 t-inv F
  0.285714 -0.142857  0.142857    0.00291545  70 t-inv F
  0.428571 -0.142857  0.142857    0.00291545  71 t-inv F
 -0.428571 -0.142857  0.142857    0.00291545  72 t-inv F
 -0.285714 -0.142857  0.142857    0.00291545  73 t-inv F
 -0.142857 -0.142857  0.142857    0.00291545  74 t-inv F
  0.000000  0.000000  0.285714    0.00291545  75 t-inv F
  0.142857  0.000000  0.285714    0.00291545  76 t-inv F
  0.285714 -0.000000  0.285714    0.00291545  77 t-inv F
  0.428571 -0.000000  0.285714    0.00291545  78 t-inv F
 -0.428571  0.000000  0.285714    0.00291545  79 t-inv F
 -0.285714  0.000000  0.285714    0.00291545  80 t-inv F
 -0.142857  0.000000  0.285714    0.00291545  81 t-inv F
  0.000000  0.142857  0.285714    0.00291545  82 t-inv F
  0.142857  0.142857  0.285714    0.00291545  83 t-inv F
  0.285714  0.142857  0.285714    0.00291545  84 t-inv F
  0.428571  0.142857  0.285714    0.00291545  85 t-inv F
 -0.428571  0.142857  0.285714    0.00291545  86 t-inv F
 -0.285714  0.142857  0.285714    0.00291545  87 t-inv F
 -0.142857  0.142857  0.285714    0.00291545  88 t-inv F
  0.000000  0.285714  0.285714    0.00291545  89 t-inv F
  0.142857  0.285714  0.285714    0.00291545  90 t-inv F
  0.285714  0.285714  0.285714    0.00291545  91 t-inv F
  0.428571  0.285714  0.285714    0.00291545  92 t-inv F
 -0.428571  0.285714  0.285714    0.00291545  93 t-inv F
 -0.285714  0.285714  0.285714    0.00291545  94 t-inv F
 -0.142857  0.285714  0.285714    0.00291545  95 t-inv F
  0.000000  0.428571  0.285714    0.00291545  96 t-inv F
  0.142857  0.428571  0.285714    0.00291545  97 t-inv F
  0.285714  0.428571  0.285714    0.00291545  98 t-inv F
  0.428571  0.428571  0.285714    0.00291545  99 t-inv F
 -0.428571  0.428571  0.285714    0.00291545 100 t-inv F
 -0.285714  0.428571  0.285714    0.00291545 101 t-inv F
 -0.142857  0.428571  0.285714    0.00291545 102 t-inv F
  0.000000 -0.428571  0.285714    0.00291545 103 t-inv F
  0.142857 -0.428571  0.285714    0.00291545 104 t-inv F
  0.285714 -0.428571  0.285714    0.00291545 105 t-inv F
  0.428571 -0.428571  0.285714    0.00291545 106 t-inv F
 -0.428571 -0.428571  0.285714    0.00291545 107 t-inv F
 -0.285714 -0.428571  0.285714    0.00291545 108 t-inv F
 -0.142857 -0.428571  0.285714    0.00291545 109 t-inv F
  0.000000 -0.285714  0.285714    0.00291545 110 t-inv F
  0.142857 -0.285714  0.285714    0.00291545 111 t-inv F
  0.285714 -0.285714  0.285714    0.00291545 112 t-inv F
  0.428571 -0.285714  0.285714    0.00291545 113 t-inv F
 -0.428571 -0.285714  0.285714    0.00291545 114 t-inv F
 -0.285714 -0.285714  0.285714    0.00291545 115 t-inv F
 -0.142857 -0.285714  0.285714    0.00291545 116 t-inv F
  0.000000 -0.142857  0.285714    0.00291545 117 t-inv F
  0.142857 -0.142857  0.285714    0.00291545 118 t-inv F
  0.285714 -0.142857  0.285714    0.00291545 119 t-inv F
  0.428571 -0.142857  0.285714    0.00291545 120 t-inv F
 -0.428571 -0.142857  0.285714    0.00291545 121 t-inv F
 -0.285714 -0.142857  0.285714    0.00291545 122 t-inv F
 -0.142857 -0.142857  0.285714    0.00291545 123 t-inv F
 -0.000000  0.000000  0.428571    0.00291545 124 t-inv F
  0.142857 -0.000000  0.428571    0.00291545 125 t-inv F
  0.285714 -0.000000  0.428571    0.00291545 126 t-inv F
  0.428571 -0.000000  0.428571    0.00291545 127 t-inv F
 -0.428571  0.000000  0.428571    0.00291545 128 t-inv F
 -0.285714  0.000000  0.428571    0.00291545 129 t-inv F
 -0.142857 -0.000000  0.428571    0.00291545 130 t-inv F
  0.000000  0.142857  0.428571    0.00291545 131 t-inv F
  0.142857  0.142857  0.428571    0.00291545 132 t-inv F
  0.285714  0.142857  0.428571    0.00291545 133 t-inv F
  0.428571  0.142857  0.428571    0.00291545 134 t-inv F
 -0.428571  0.142857  0.428571    0.00291545 135 t-inv F
 -0.285714  0.142857  0.428571    0.00291545 136 t-inv F
 -0.142857  0.142857  0.428571    0.00291545 137 t-inv F
 -0.000000  0.285714  0.428571    0.00291545 138 t-inv F
  0.142857  0.285714  0.428571    0.00291545 139 t-inv F
  0.285714  0.285714  0.428571    0.00291545 140 t-inv F
  0.428571  0.285714  0.428571    0.00291545 141 t-inv F
 -0.428571  0.285714  0.428571    0.00291545 142 t-inv F
 -0.285714  0.285714  0.428571    0.00291545 143 t-inv F
 -0.142857  0.285714  0.428571    0.00291545 144 t-inv F
 -0.000000  0.428571  0.428571    0.00291545 145 t-inv F
  0.142857  0.428571  0.428571    0.00291545 146 t-inv F
  0.285714  0.428571  0.428571    0.00291545 147 t-inv F
  0.428571  0.428571  0.428571    0.00291545 148 t-inv F
 -0.428571  0.428571  0.428571    0.00291545 149 t-inv F
 -0.285714  0.428571  0.428571    0.00291545 150 t-inv F
 -0.142857  0.428571  0.428571    0.00291545 151 t-inv F
 -0.000000 -0.428571  0.428571    0.00291545 152 t-inv F
  0.142857 -0.428571  0.428571    0.00291545 153 t-inv F
  0.285714 -0.428571  0.428571    0.00291545 154 t-inv F
  0.428571 -0.428571  0.428571    0.00291545 155 t-inv F
 -0.428571 -0.428571  0.428571    0.00291545 156 t-inv F
 -0.285714 -0.428571  0.428571    0.00291545 157 t-inv F
 -0.142857 -0.428571  0.428571    0.00291545 158 t-inv F
 -0.000000 -0.285714  0.428571    0.00291545 159 t-inv F
  0.142857 -0.285714  0.428571    0.00291545 160 t-inv F
  0.285714 -0.285714  0.428571    0.00291545 161 t-inv F
  0.428571 -0.285714  0.428571    0.00291545 162 t-inv F
 -0.428571 -0.285714  0.428571    0.00291545 163 t-inv F
 -0.285714 -0.285714  0.428571    0.00291545 164 t-inv F
 -0.142857 -0.285714  0.428571    0.00291545 165 t-inv F
  0.000000 -0.142857  0.428571    0.00291545 166 t-inv F
  0.142857 -0.142857  0.428571    0.00291545 167 t-inv F
  0.285714 -0.142857  0.428571    0.00291545 168 t-inv F
  0.428571 -0.142857  0.428571    0.00291545 169 t-inv F
 -0.428571 -0.142857  0.428571    0.00291545 170 t-inv F
 -0.285714 -0.142857  0.428571    0.00291545 171 t-inv F
 -0.142857 -0.142857  0.428571    0.00291545 172 t-inv F
 -0.142857  0.000000 -0.000000    0.00291545   2 t-inv T
 -0.285714  0.000000 -0.000000    0.00291545   3 t-inv T
 -0.428571  0.000000 -0.000000    0.00291545   4 t-inv T
  0.000000 -0.142857  0.000000    0.00291545   5 t-inv T
 -0.142857 -0.142857 -0.000000    0.00291545   6 t-inv T
 -0.285714 -0.142857 -0.000000    0.00291545   7 t-inv T
 -0.428571 -0.142857 -0.000000    0.00291545   8 t-inv T
  0.428571 -0.142857  0.000000    0.00291545   9 t-inv T
  0.285714 -0.142857  0.000000    0.00291545  10 t-inv T
  0.142857 -0.142857  0.000000    0.00291545  11 t-inv T
  0.000000 -0.285714  0.000000    0.00291545  12 t-inv T
 -0.142857 -0.285714 -0.000000    0.00291545  13 t-inv T
 -0.285714 -0.285714 -0.000000    0.00291545  14 t-inv T
 -0.428571 -0.285714 -0.000000    0.00291545  15 t-inv T
  0.428571 -0.285714  0.000000    0.00291545  16 t-inv T
  0.285714 -0.285714 -0.000000    0.00291545  17 t-inv T
  0.142857 -0.285714  0.000000    0.00291545  18 t-inv T
  0.000000 -0.428571  0.000000    0.00291545  19 t-inv T
 -0.142857 -0.428571  0.000000    0.00291545  20 t-inv T
 -0.285714 -0.428571  0.000000    0.00291545  21 t-inv T
 -0.428571 -0.428571  0.000000    0.00291545  22 t-inv T
  0.428571 -0.428571  0.000000    0.00291545  23 t-inv T
  0.285714 -0.428571  0.000000    0.00291545  24 t-inv T
  0.142857 -0.428571  0.000000    0.00291545  25 t-inv T
 -0.000000 -0.000000 -0.142857    0.00291545  26 t-inv T
 -0.142857 -0.000000 -0.142857    0.00291545  27 t-inv T
 -0.285714  0.000000 -0.142857    0.00291545  28 t-inv T
 -0.428571  0.000000 -0.142857    0.00291545  29 t-inv T
  0.428571 -0.000000 -0.142857    0.00291545  30 t-inv T
  0.285714  0.000000 -0.142857    0.00291545  31 t-inv T
  0.142857 -0.000000 -0.142857    0.00291545  32 t-inv T
 -0.000000 -0.142857 -0.142857    0.00291545  33 t-inv T
 -0.142857 -0.142857 -0.142857    0.00291545  34 t-inv T
 -0.285714 -0.142857 -0.142857    0.00291545  35 t-inv T
 -0.428571 -0.142857 -0.142857    0.00291545  36 t-inv T
  0.428571 -0.142857 -0.142857    0.00291545  37 t-inv T
  0.285714 -0.142857 -0.142857    0.00291545  38 t-inv T
  0.142857 -0.142857 -0.142857    0.00291545  39 t-inv T
 -0.000000 -0.285714 -0.142857    0.00291545  40 t-inv T
 -0.142857 -0.285714 -0.142857    0.00291545  41 t-inv T
 -0.285714 -0.285714 -0.142857    0.00291545  42 t-inv T
 -0.428571 -0.285714 -0.142857    0.00291545  43 t-inv T
  0.428571 -0.285714 -0.142857    0.00291545  44 t-inv T
  0.285714 -0.285714 -0.142857    0.00291545  45 t-inv T
  0.142857 -0.285714 -0.142857    0.00291545  46 t-inv T
  0.000000 -0.428571 -0.142857    0.00291545  47 t-inv T
 -0.142857 -0.428571 -0.142857    0.00291545  48 t-inv T
 -0.285714 -0.428571 -0.142857    0.00291545  49 t-inv T
 -0.428571 -0.428571 -0.142857    0.00291545  50 t-inv T
  0.428571 -0.428571 -0.142857    0.00291545  51 t-inv T
  0.285714 -0.428571 -0.142857    0.00291545  52 t-inv T
  0.142857 -0.428571 -0.142857    0.00291545  53 t-inv T
 -0.000000  0.428571 -0.142857    0.00291545  54 t-inv T
 -0.142857  0.428571 -0.142857    0.00291545  55 t-inv T
 -0.285714  0.428571 -0.142857    0.00291545  56 t-inv T
 -0.428571  0.428571 -0.142857    0.00291545  57 t-inv T
  0.428571  0.428571 -0.142857    0.00291545  58 t-inv T
  0.285714  0.428571 -0.142857    0.00291545  59 t-inv T
  0.142857  0.428571 -0.142857    0.00291545  60 t-inv T
 -0.000000  0.285714 -0.142857    0.00291545  61 t-inv T
 -0.142857  0.285714 -0.142857    0.00291545  62 t-inv T
 -0.285714  0.285714 -0.142857    0.00291545  63 t-inv T
 -0.428571  0.285714 -0.142857    0.00291545  64 t-inv T
  0.428571  0.285714 -0.142857    0.00291545  65 t-inv T
  0.285714  0.285714 -0.142857    0.00291545  66 t-inv T
  0.142857  0.285714 -0.142857    0.00291545  67 t-inv T
 -0.000000  0.142857 -0.142857    0.00291545  68 t-inv T
 -0.142857  0.142857 -0.142857    0.00291545  69 t-inv T
 -0.285714  0.142857 -0.142857    0.00291545  70 t-inv T
 -0.428571  0.142857 -0.142857    0.00291545  71 t-inv T
  0.428571  0.142857 -0.142857    0.00291545  72 t-inv T
  0.285714  0.142857 -0.142857    0.00291545  73 t-inv T
  0.142857  0.142857 -0.142857    0.00291545  74 t-inv T
 -0.000000 -0.000000 -0.285714    0.00291545  75 t-inv T
 -0.142857 -0.000000 -0.285714    0.00291545  76 t-inv T
 -0.285714  0.000000 -0.285714    0.00291545  77 t-inv T
 -0.428571  0.000000 -0.285714    0.00291545  78 t-inv T
  0.428571 -0.000000 -0.285714    0.00291545  79 t-inv T
  0.285714 -0.000000 -0.285714    0.00291545  80 t-inv T
  0.142857 -0.000000 -0.285714    0.00291545  81 t-inv T
 -0.000000 -0.142857 -0.285714    0.00291545  82 t-inv T
 -0.142857 -0.142857 -0.285714    0.00291545  83 t-inv T
 -0.285714 -0.142857 -0.285714    0.00291545  84 t-inv T
 -0.428571 -0.142857 -0.285714    0.00291545  85 t-inv T
  0.428571 -0.142857 -0.285714    0.00291545  86 t-inv T
  0.285714 -0.142857 -0.285714    0.00291545  87 t-inv T
  0.142857 -0.142857 -0.285714    0.00291545  88 t-inv T
 -0.000000 -0.285714 -0.285714    0.00291545  89 t-inv T
 -0.142857 -0.285714 -0.285714    0.00291545  90 t-inv T
 -0.285714 -0.285714 -0.285714    0.00291545  91 t-inv T
 -0.428571 -0.285714 -0.285714    0.00291545  92 t-inv T
  0.428571 -0.285714 -0.285714    0.00291545  93 t-inv T
  0.285714 -0.285714 -0.285714    0.00291545  94 t-inv T
  0.142857 -0.285714 -0.285714    0.00291545  95 t-inv T
 -0.000000 -0.428571 -0.285714    0.00291545  96 t-inv T
 -0.142857 -0.428571 -0.285714    0.00291545  97 t-inv T
 -0.285714 -0.428571 -0.285714    0.00291545  98 t-inv T
 -0.428571 -0.428571 -0.285714    0.00291545  99 t-inv T
  0.428571 -0.428571 -0.285714    0.00291545 100 t-inv T
  0.285714 -0.428571 -0.285714    0.00291545 101 t-inv T
  0.142857 -0.428571 -0.285714    0.00291545 102 t-inv T
 -0.000000  0.428571 -0.285714    0.00291545 103 t-inv T
 -0.142857  0.428571 -0.285714    0.00291545 104 t-inv T
 -0.285714  0.428571 -0.285714    0.00291545 105 t-inv T
 -0.428571  0.428571 -0.285714    0.00291545 106 t-inv T
  0.428571  0.428571 -0.285714    0.00291545 107 t-inv T
  0.285714  0.428571 -0.285714    0.00291545 108 t-inv T
  0.142857  0.428571 -0.285714    0.00291545 109 t-inv T
 -0.000000  0.285714 -0.285714    0.00291545 110 t-inv T
 -0.142857  0.285714 -0.285714    0.00291545 111 t-inv T
 -0.285714  0.285714 -0.285714    0.00291545 112 t-inv T
 -0.428571  0.285714 -0.285714    0.00291545 113 t-inv T
  0.428571  0.285714 -0.285714    0.00291545 114 t-inv T
  0.285714  0.285714 -0.285714    0.00291545 115 t-inv T
  0.142857  0.285714 -0.285714    0.00291545 116 t-inv T
 -0.000000  0.142857 -0.285714    0.00291545 117 t-inv T
 -0.142857  0.142857 -0.285714    0.00291545 118 t-inv T
 -0.285714  0.142857 -0.285714    0.00291545 119 t-inv T
 -0.428571  0.142857 -0.285714    0.00291545 120 t-inv T
  0.428571  0.142857 -0.285714    0.00291545 121 t-inv T
  0.285714  0.142857 -0.285714    0.00291545 122 t-inv T
  0.142857  0.142857 -0.285714    0.00291545 123 t-inv T
  0.000000 -0.000000 -0.428571    0.00291545 124 t-inv T
 -0.142857  0.000000 -0.428571    0.00291545 125 t-inv T
 -0.285714  0.000000 -0.428571    0.00291545 126 t-inv T
 -0.428571  0.000000 -0.428571    0.00291545 127 t-inv T
  0.428571 -0.000000 -0.428571    0.00291545 128 t-inv T
  0.285714 -0.000000 -0.428571    0.00291545 129 t-inv T
  0.142857  0.000000 -0.428571    0.00291545 130 t-inv T
  0.000000 -0.142857 -0.428571    0.00291545 131 t-inv T
 -0.142857 -0.142857 -0.428571    0.00291545 132 t-inv T
 -0.285714 -0.142857 -0.428571    0.00291545 133 t-inv T
 -0.428571 -0.142857 -0.428571    0.00291545 134 t-inv T
  0.428571 -0.142857 -0.428571    0.00291545 135 t-inv T
  0.285714 -0.142857 -0.428571    0.00291545 136 t-inv T
  0.142857 -0.142857 -0.428571    0.00291545 137 t-inv T
  0.000000 -0.285714 -0.428571    0.00291545 138 t-inv T
 -0.142857 -0.285714 -0.428571    0.00291545 139 t-inv T
 -0.285714 -0.285714 -0.428571    0.00291545 140 t-inv T
 -0.428571 -0.285714 -0.428571    0.00291545 141 t-inv T
  0.428571 -0.285714 -0.428571    0.00291545 142 t-inv T
  0.285714 -0.285714 -0.428571    0.00291545 143 t-inv T
  0.142857 -0.285714 -0.428571    0.00291545 144 t-inv T
  0.000000 -0.428571 -0.428571    0.00291545 145 t-inv T
 -0.142857 -0.428571 -0.428571    0.00291545 146 t-inv T
 -0.285714 -0.428571 -0.428571    0.00291545 147 t-inv T
 -0.428571 -0.428571 -0.428571    0.00291545 148 t-inv T
  0.428571 -0.428571 -0.428571    0.00291545 149 t-inv T
  0.285714 -0.428571 -0.428571    0.00291545 150 t-inv T
  0.142857 -0.428571 -0.428571    0.00291545 151 t-inv T
  0.000000  0.428571 -0.428571    0.00291545 152 t-inv T
 -0.142857  0.428571 -0.428571    0.00291545 153 t-inv T
 -0.285714  0.428571 -0.428571    0.00291545 154 t-inv T
 -0.428571  0.428571 -0.428571    0.00291545 155 t-inv T
  0.428571  0.428571 -0.428571    0.00291545 156 t-inv T
  0.285714  0.428571 -0.428571    0.00291545 157 t-inv T
  0.142857  0.428571 -0.428571    0.00291545 158 t-inv T
  0.000000  0.285714 -0.428571    0.00291545 159 t-inv T
 -0.142857  0.285714 -0.428571    0.00291545 160 t-inv T
 -0.285714  0.285714 -0.428571    0.00291545 161 t-inv T
 -0.428571  0.285714 -0.428571    0.00291545 162 t-inv T
  0.428571  0.285714 -0.428571    0.00291545 163 t-inv T
  0.285714  0.285714 -0.428571    0.00291545 164 t-inv T
  0.142857  0.285714 -0.428571    0.00291545 165 t-inv T
 -0.000000  0.142857 -0.428571    0.00291545 166 t-inv T
 -0.142857  0.142857 -0.428571    0.00291545 167 t-inv T
 -0.285714  0.142857 -0.428571    0.00291545 168 t-inv T
 -0.428571  0.142857 -0.428571    0.00291545 169 t-inv T
  0.428571  0.142857 -0.428571    0.00291545 170 t-inv T
  0.285714  0.142857 -0.428571    0.00291545 171 t-inv T
  0.142857  0.142857 -0.428571    0.00291545 172 t-inv T


--------------------------------------------------------------------------------------------------------




 Dimension of arrays:
   k-points           NKPTS =    172   k-points in BZ     NKDIM =    343   number of bands    NBANDS=    128
   number of dos      NEDOS =    301   number of ions     NIONS =      1
   non local maximal  LDIM  =      6   non local SUM 2l+1 LMDIM =     18
   total plane-waves  NPLWV =  13824
   max r-space proj   IRMAX =      1   max aug-charges    IRDMAX=  54308
   dimension x,y,z NGX =    24 NGY =   24 NGZ =   24
   dimension x,y,z NGXF=    48 NGYF=   48 NGZF=   48
   support grid    NGXF=    96 NGYF=   96 NGZF=   96
   ions per type =               1
   NGX,Y,Z   is equivalent  to a cutoff of  10.65, 10.65, 10.65 a.u.
   NGXF,Y,Z  is equivalent  to a cutoff of  21.29, 21.29, 21.29 a.u.

 SYSTEM =  Og_FCC                                  
 POSCAR =  Ar_FCC                                  

 Startparameter for this run:
   NWRITE =      1    write-flag & timer
   PREC   = accura    normal or accurate (medium, high low for compatibility)
   ISTART =      1    job   : 0-new  1-cont  2-samecut
   ICHARG =      0    charge: 1-file 2-atom 10-const
   ISPIN  =      1    spin polarized calculation?
   LNONCOLLINEAR =      F non collinear calculations
   LSORBIT =      F    spin-orbit coupling
   INIWAV =      1    electr: 0-lowe 1-rand  2-diag
   LASPH  =      F    aspherical Exc in radial PAW
   METAGGA=      F    non-selfconsistent MetaGGA calc.

 Electronic Relaxation 1
   ENCUT  =  300.0 eV  22.05 Ry    4.70 a.u.   5.29  5.29  5.29*2*pi/ulx,y,z
   ENINI  =  300.0     initial cutoff
   ENAUG  =  799.9 eV  augmentation charge cutoff
   NELM   =      1;   NELMIN=  2; NELMDL=  0     # of ELM steps 
   EDIFF  = 0.1E-07   stopping-criterion for ELM
   LREAL  =      F    real-space projection
   NLSPLINE    = F    spline interpolate recip. space projectors
   LCOMPAT=      F    compatible to vasp.4.4
   GGA_COMPAT  = F    GGA compatible to vasp.4.4-vasp.4.6
   LMAXPAW     = -100 max onsite density
   LMAXMIX     =    2 max onsite mixed and CHGCAR
   VOSKOWN=      0    Vosko Wilk Nusair interpolation
   ROPT   =    0.00000
 Ionic relaxation
   EDIFFG = 0.1E-04   stopping-criterion for IOM
   NSW    =      1    number of steps for IOM
   NBLOCK =      1;   KBLOCK =      1    inner block; outer block 
   IBRION =     -1    ionic relax: 0-MD 1-quasi-New 2-CG
   NFREE  =      5    steps in history (QN), initial steepest desc. (CG)
   ISIF   =      3    stress and relaxation
   IWAVPR =     10    prediction:  0-non 1-charg 2-wave 3-comb
   ISYM   =      0    0-nonsym 1-usesym 2-fastsym
   LCORR  =      T    Harris-Foulkes like correction to forces

   POTIM  = 0.1000    time-step for ionic-motion
   TEIN   =    0.0    initial temperature
   TEBEG  =    0.0;   TEEND  =   0.0 temperature during run
   SMASS  =  -3.00    Nose mass-parameter (am)
   estimated Nose-frequenzy (Omega)   =  0.10E-29 period in steps =****** mass=  -0.321E-27a.u.
   SCALEE = 1.0000    scale energy and forces
   NPACO  =    256;   APACO  = 16.0  distance and # of slots for P.C.
   PSTRESS=    0.0 pullay stress

  Mass of Ions in am
   POMASS =  39.95
  Ionic Valenz
   ZVAL   =   8.00
  Atomic Wigner-Seitz radii
   RWIGS  =  -1.00
  virtual crystal weights 
   VCA    =   1.00
   NELECT =       8.0000    total number of electrons
   NUPDOWN=      -1.0000    fix difference up-down

 DOS related values:
   EMIN   =  10.00;   EMAX   =-10.00  energy-range for DOS
   EFERMI =   0.00
   ISMEAR =     0;   SIGMA  =   0.00  broadening in eV -4-tet -1-fermi 0-gaus

 Electronic relaxation 2 (details)
   IALGO  =     38    algorithm
   LDIAG  =      T    sub-space diagonalisation (order eigenvalues)
   LSUBROT=      F    optimize rotation matrix (better conditioning)
   TURBO    =      0    0=normal 1=particle mesh
   IRESTART =      0    0=no restart 2=restart with 2 vectors
   NREBOOT  =      0    no. of reboots
   NMIN     =      0    reboot dimension
   EREF     =   0.00    reference energy to select bands
   IMIX   =      1    mixing-type and parameters
     AMIX     =   0.40;   BMIX     =  1.00
     AMIX_MAG =   1.60;   BMIX_MAG =  1.00
     AMIN     =   0.10
     WC   =   100.;   INIMIX=   1;  MIXPRE=   1;  MAXMIX=  50

 Intra band minimization:
   WEIMIN = 0.0000     energy-eigenvalue tresh-hold
   EBREAK =  0.20E-10  absolut break condition
   DEPER  =   0.30     relativ break condition  

   TIME   =   0.40     timestep for ELM

  volume/ion in A,a.u.               =      37.21       251.13
  Fermi-wavevector in a.u.,A,eV,Ry     =   0.980701  1.853256 13.085739  0.961775
  Thomas-Fermi vector in A             =   2.111651
 
 Write flags
   LWAVE        =      T    write WAVECAR
   LDOWNSAMPLE  =      F    k-point downsampling of WAVECAR
   LCHARG       =      F    write CHGCAR
   LVTOT        =      F    write LOCPOT, total local potential
   LVHAR        =      F    write LOCPOT, Hartree potential only
   LELF         =      F    write electronic localiz. function (ELF)
   LORBIT       =      0    0 simple, 1 ext, 2 COOP (PROOUT), +10 PAW based schemes


 Dipole corrections
   LMONO  =      F    monopole corrections only (constant potential shift)
   LDIPOL =      F    correct potential (dipole corrections)
   IDIPOL =      0    1-x, 2-y, 3-z, 4-all directions 
   EPSILON=  1.0000000 bulk dielectric constant

 Exchange correlation treatment:
   GGA     =    PE    GGA type
   LEXCH   =     8    internal setting for exchange type
   VOSKOWN=      0    Vosko Wilk Nusair interpolation
   EXXOEP  =     0    0=HF, 1=EXX-LHF (local Hartree Fock) 2=EXX OEP
   LHFCALC =     T    Hartree Fock is set to
   LSYMGRAD=     F    symmetrize gradient (conserves proper symmetry)
   PRECFOCK=normal    Normal, Fast or Accurate (Low or Medium for compatibility)
   LRHFCALC=     F    long range Hartree Fock
   LRSCOR  =     F    long range correlation only (use DFT for short range part)
   LTHOMAS =     F    Thomas Fermi screening in HF
   LMODELHF=     F    short range full HF, long range fraction AEXX
   ENCUT4O =  -1.0   cutoff for four orbital integrals eV
   LMAXFOCK=     4    L truncation for augmentation on plane wave grid
   LMAXFOCKAE=   4    L truncation for all-electron charge restoration on plane wave grid
   NMAXFOCKAE=   1    number of basis functions for all-electron charge restoration
   LFOCKAEDFT=     F  apply the AE augmentation even for DFT
   NKREDX  =     1    reduce k-point grid by
   NKREDY  =     1    reduce k-point grid by
   NKREDZ  =     1    reduce k-point grid by
   SHIFTRED=     F    shift reduced grid of Gamma
   HFKIDENT=     F    idential grid for each k-point
   ODDONLY =     F    use only odd q-grid points
   EVENONLY=     F    use only even q-grid points
   HFALPHA =   -1.0000 decay constant for conv. correction
   MCALPHA =    0.0000 extent of test-charge in conv. correction in multipole expansion
   AEXX    =    1.0000 exact exchange contribution
   HFSCREEN=    0.0000 screening length (either q_TF or 0.3 A-1)
   HFSCREENC=   0.0000 screening length for correlation (either q_TF or 0.3 A-1)
   HFRCUT  =    0.0000 spherical cutoff for potential kernel
   ALDAX   =    0.0000 LDA exchange part
   AGGAX   =    0.0000 GGA exchange part
   ALDAC   =    0.0000 LDA correlation
   AGGAC   =    0.0000 GGA correlation
   ENCUTFOCK=  -1.0 apply spherical cutoff to Coloumb kernel
   NBANDSGWLOW=     1    first orbital included in HF term
   NBLOCK_FOCK=    64    blocking factor in FOCK_ACC
 Linear response parameters
   LEPSILON=     F    determine dielectric tensor
   LRPA    =     F    only Hartree local field effects (RPA)
   LNABLA  =     F    use nabla operator in PAW spheres
   LVEL    =     F    velocity operator in full k-point grid
   LINTERFAST=   F  fast interpolation
   KINTER  =     0    interpolate to denser k-point grid
   CSHIFT  =0.1000    complex shift for real part using Kramers Kronig
   OMEGAMAX=  -1.0    maximum frequency
   DEG_THRESHOLD= 0.2000000E-02 threshold for treating states as degnerate
   RTIME   =   -0.100 relaxation time in fs
  (WPLASMAI=    0.000 imaginary part of plasma frequency in eV, 0.658/RTIME)
   DFIELD  = 0.0000000 0.0000000 0.0000000 field for delta impulse in time
 
 Orbital magnetization related:
   ORBITALMAG=     F  switch on orbital magnetization
   LCHIMAG   =     F  perturbation theory with respect to B field
   DQ        =  0.001000  dq finite difference perturbation B field
   LLRAUG    =     F  two centre corrections for induced B field

 Response functions by sum over occupied states:
   ALGO    =QPGW       execute GW part
   LFXC    =     F    include DFT xc kernel in TD-HF and W
   LADDER  =     F    particle hole ladder diagrams for BSE/TD-HF and W (Nano-quanta)
   LRPAFORCE=     F   calculate RPA forces
   LHARTREE=     T    include Hartree terms (bubbles-RPA) in BSE/TD-HF
   IBSE    =     0    BSE modus: 0 exact, 1 time-evolution (store matrix), 10 time-evolution (implicit)
   KPOINT  =    -1   0   0   0    k-point index at which BSE equation is solved (and G at which response is eval.)
   LTRIPLET=     F    triplet instead of singlet excitation (BSE only)
   LRSRPA  =     F    range separated RPA (total - short) in ACFDT
   LTCTE   =     F    use test-charge test-electron dielectric function
   LTETE   =     F    use test-electron test-electron dielectric function
   LFXCEPS =     F    determine f_xc=epsilon-1/Xi Sharma and Gross kernel
   LFXHEG  =     F    model exchange using f_x(G,k_F) from free electron gas
   NATURALO=     2    0 natural orbitals, 1 only virtual, 2 only occupied-virtual rotation
   L2ORDER =     F    2nd order terms only
   LMP2LT   =     F    use LT MP2
   LUSEW   =     F    use screened W from WXXXX.tmp files instead of (screened) HF kernel
   ENCUTGW = 200.0    cutoff for response function in eV
   ENCUTGWSOFT = 200.0 soft cutoff for Coulomb kernel in GW response function in eV
   ENCUTLF =  -1.0    cutoff for local field effects
   LMAXMP2 =    -1    maximum L for one center terms
   SCISSOR =   0.0    scissor correction
   NOMEGA  =    50    number of frequencies
   NOMEGAR =    50    number of frequencies along real axis
   NBANDSGW=    -1    number of bands for which selfenergy shift is calculated
   NBANDSGWLOW=     1 lowest band included in GW (to exclude core correlation)
   NBANDSO =    -1    number of bands for electron-hole treatment (occupied)
   NBANDSV =    -1    number of bands for electron-hole treatment (virtual)
   NELM    =     1    number of iterations in solving QP/BSE equation
   NELMHF  =     1    number of iterations in the inner HF iteration
   DIM     =     3    dimensionality of system (0=0D molecules, 3=3D)
   ANTIRES =     0    antiresonant part (0) no TDA (1) w=0 exact (2) accurate
   OMEGAMAX= -30.0    maximum frequency
   OMEGAMIN= -30.000    minimum frequency
   OMEGATL =-200.0    maximum frequency of tail
   OMEGAGRID=     0    grid type (0 default)
   CSHIFT  =-0.100    complex shift used in evaluation of response functions
   SELFENERGY=   F    calculate selfenergy instead of QP shifts
   LSPECTRAL =   T    use spectral functions                   
   LSPECTRALGW=   F   use spectral functions to calculate int dz G(w-z) W(z) (more accurate)
   LSINGLES  =   F   calculate the singles contribution to the correlation energy
   LFERMIGW  =   F   update Fermi-energy in the Greens function

   ODDONLYGW =   F    avoid all even points for polarizability 
   EVENONLYGW=   F    avoid all odd  points for polarizability 
   NKREDLFX  =   1   NKREDLFY  =   1   NKREDLFZ  =   1

   TELESCOPE =   0   use telescope k-point sampling
   TAUPAR    =   1   number of TAU groups used in imaginary time calculation
   OMEGAPAR  =  -1   number of OMEGA groups used in imaginary frequency calculation



--------------------------------------------------------------------------------------------------------


 Static calculation
 charge density and potential will be updated during run
 non-spin polarized calculation
 Variant of blocked Davidson
 Davidson routine will perform the subspace rotation
 perform sub-space diagonalisation
    after iterative eigenvector-optimisation
 Kerker-like  mixing scheme
 using additional bands          124
 reciprocal scheme for non local part
 use partial core corrections
 calculate Harris-corrections to forces 
   (improved forces if not selfconsistent)
 use gradient corrections 
 use of overlap-Matrix (Vanderbilt PP)
 Gauss-broadening in eV      SIGMA  =   0.00


--------------------------------------------------------------------------------------------------------


  energy-cutoff  :      300.00
  volume of cell :       37.21
      direct lattice vectors                 reciprocal lattice vectors
     3.747484295  0.000000000  0.000000000     0.266845681 -0.154063426 -0.108939293
     1.873742148  3.245416600 -0.000000000     0.000000000  0.308126852 -0.108939293
     1.873742148  1.081805533  3.059808114    -0.000000000  0.000000000  0.326817880

  length of vectors
     3.747484295  3.747484295  3.747484295     0.326817880  0.326817880  0.326817880


 
 old parameters found on file WAVECAR:
  energy-cutoff  :      300.00
  volume of cell :       37.21
      direct lattice vectors                 reciprocal lattice vectors
     3.747484295  0.000000000  0.000000000     0.266845681 -0.154063426 -0.108939293
     1.873742148  3.245416600 -0.000000000     0.000000000  0.308126852 -0.108939293
     1.873742148  1.081805533  3.059808114    -0.000000000  0.000000000  0.326817880

  length of vectors

 
 k-points in units of 2pi/SCALE and weight: k-points                                
   0.00000000  0.00000000  0.00000000       0.003
   0.03968588 -0.02291266 -0.01620169       0.006
   0.07937177 -0.04582531 -0.03240339       0.006
   0.11905765 -0.06873797 -0.04860508       0.006
   0.00000000  0.04582531 -0.01620169       0.006
   0.03968588  0.02291266 -0.03240339       0.006
   0.07937177  0.00000000 -0.04860508       0.006
   0.11905765 -0.02291266 -0.06480678       0.006
  -0.11905765  0.11456328  0.03240339       0.006
  -0.07937177  0.09165062  0.01620169       0.006
  -0.03968588  0.06873797  0.00000000       0.006
   0.00000000  0.09165062 -0.03240339       0.006
   0.03968588  0.06873797 -0.04860508       0.006
   0.07937177  0.04582531 -0.06480678       0.006
   0.11905765  0.02291266 -0.08100847       0.006
  -0.11905765  0.16038859  0.01620169       0.006
  -0.07937177  0.13747593  0.00000000       0.006
  -0.03968588  0.11456328 -0.01620169       0.006
   0.00000000  0.13747593 -0.04860508       0.006
   0.03968588  0.11456328 -0.06480678       0.006
   0.07937177  0.09165062 -0.08100847       0.006
   0.11905765  0.06873797 -0.09721016       0.006
  -0.11905765  0.20621390  0.00000000       0.006
  -0.07937177  0.18330124 -0.01620169       0.006
  -0.03968588  0.16038859 -0.03240339       0.006
  -0.00000000  0.00000000  0.04860508       0.006
   0.03968588 -0.02291266  0.03240339       0.006
   0.07937177 -0.04582531  0.01620169       0.006
   0.11905765 -0.06873797 -0.00000000       0.006
  -0.11905765  0.06873797  0.09721016       0.006
  -0.07937177  0.04582531  0.08100847       0.006
  -0.03968588  0.02291266  0.06480678       0.006
  -0.00000000  0.04582531  0.03240339       0.006
   0.03968588  0.02291266  0.01620169       0.006
   0.07937177  0.00000000  0.00000000       0.006
   0.11905765 -0.02291266 -0.01620169       0.006
  -0.11905765  0.11456328  0.08100847       0.006
  -0.07937177  0.09165062  0.06480678       0.006
  -0.03968588  0.06873797  0.04860508       0.006
  -0.00000000  0.09165062  0.01620169       0.006
   0.03968588  0.06873797  0.00000000       0.006
   0.07937177  0.04582531 -0.01620169       0.006
   0.11905765  0.02291266 -0.03240339       0.006
  -0.11905765  0.16038859  0.06480678       0.006
  -0.07937177  0.13747593  0.04860508       0.006
  -0.03968588  0.11456328  0.03240339       0.006
  -0.00000000  0.13747593  0.00000000       0.006
   0.03968588  0.11456328 -0.01620169       0.006
   0.07937177  0.09165062 -0.03240339       0.006
   0.11905765  0.06873797 -0.04860508       0.006
  -0.11905765  0.20621390  0.04860508       0.006
  -0.07937177  0.18330124  0.03240339       0.006
  -0.03968588  0.16038859  0.01620169       0.006
  -0.00000000 -0.13747593  0.09721016       0.006
   0.03968588 -0.16038859  0.08100847       0.006
   0.07937177 -0.18330124  0.06480678       0.006
   0.11905765 -0.20621390  0.04860508       0.006
  -0.11905765 -0.06873797  0.14581524       0.006
  -0.07937177 -0.09165062  0.12961355       0.006
  -0.03968588 -0.11456328  0.11341186       0.006
  -0.00000000 -0.09165062  0.08100847       0.006
   0.03968588 -0.11456328  0.06480678       0.006
   0.07937177 -0.13747593  0.04860508       0.006
   0.11905765 -0.16038859  0.03240339       0.006
  -0.11905765 -0.02291266  0.12961355       0.006
  -0.07937177 -0.04582531  0.11341186       0.006
  -0.03968588 -0.06873797  0.09721016       0.006
  -0.00000000 -0.04582531  0.06480678       0.006
   0.03968588 -0.06873797  0.04860508       0.006
   0.07937177 -0.09165062  0.03240339       0.006
   0.11905765 -0.11456328  0.01620169       0.006
  -0.11905765  0.02291266  0.11341186       0.006
  -0.07937177 -0.00000000  0.09721016       0.006
  -0.03968588 -0.02291266  0.08100847       0.006
  -0.00000000  0.00000000  0.09721016       0.006
   0.03968588 -0.02291266  0.08100847       0.006
   0.07937177 -0.04582531  0.06480678       0.006
   0.11905765 -0.06873797  0.04860508       0.006
  -0.11905765  0.06873797  0.14581524       0.006
  -0.07937177  0.04582531  0.12961355       0.006
  -0.03968588  0.02291266  0.11341186       0.006
  -0.00000000  0.04582531  0.08100847       0.006
   0.03968588  0.02291266  0.06480678       0.006
   0.07937177  0.00000000  0.04860508       0.006
   0.11905765 -0.02291266  0.03240339       0.006
  -0.11905765  0.11456328  0.12961355       0.006
  -0.07937177  0.09165062  0.11341186       0.006
  -0.03968588  0.06873797  0.09721016       0.006
  -0.00000000  0.09165062  0.06480678       0.006
   0.03968588  0.06873797  0.04860508       0.006
   0.07937177  0.04582531  0.03240339       0.006
   0.11905765  0.02291266  0.01620169       0.006
  -0.11905765  0.16038859  0.11341186       0.006
  -0.07937177  0.13747593  0.09721016       0.006
  -0.03968588  0.11456328  0.08100847       0.006
  -0.00000000  0.13747593  0.04860508       0.006
   0.03968588  0.11456328  0.03240339       0.006
   0.07937177  0.09165062  0.01620169       0.006
   0.11905765  0.06873797  0.00000000       0.006
  -0.11905765  0.20621390  0.09721016       0.006
  -0.07937177  0.18330124  0.08100847       0.006
  -0.03968588  0.16038859  0.06480678       0.006
  -0.00000000 -0.13747593  0.14581524       0.006
   0.03968588 -0.16038859  0.12961355       0.006
   0.07937177 -0.18330124  0.11341186       0.006
   0.11905765 -0.20621390  0.09721016       0.006
  -0.11905765 -0.06873797  0.19442033       0.006
  -0.07937177 -0.09165062  0.17821863       0.006
  -0.03968588 -0.11456328  0.16201694       0.006
  -0.00000000 -0.09165062  0.12961355       0.006
   0.03968588 -0.11456328  0.11341186       0.006
   0.07937177 -0.13747593  0.09721016       0.006
   0.11905765 -0.16038859  0.08100847       0.006
  -0.11905765 -0.02291266  0.17821863       0.006
  -0.07937177 -0.04582531  0.16201694       0.006
  -0.03968588 -0.06873797  0.14581524       0.006
  -0.00000000 -0.04582531  0.11341186       0.006
   0.03968588 -0.06873797  0.09721016       0.006
   0.07937177 -0.09165062  0.08100847       0.006
   0.11905765 -0.11456328  0.06480678       0.006
  -0.11905765  0.02291266  0.16201694       0.006
  -0.07937177 -0.00000000  0.14581524       0.006
  -0.03968588 -0.02291266  0.12961355       0.006
  -0.00000000  0.00000000  0.14581524       0.006
   0.03968588 -0.02291266  0.12961355       0.006
   0.07937177 -0.04582531  0.11341186       0.006
   0.11905765 -0.06873797  0.09721016       0.006
  -0.11905765  0.06873797  0.19442033       0.006
  -0.07937177  0.04582531  0.17821863       0.006
  -0.03968588  0.02291266  0.16201694       0.006
  -0.00000000  0.04582531  0.12961355       0.006
   0.03968588  0.02291266  0.11341186       0.006
   0.07937177  0.00000000  0.09721016       0.006
   0.11905765 -0.02291266  0.08100847       0.006
  -0.11905765  0.11456328  0.17821863       0.006
  -0.07937177  0.09165062  0.16201694       0.006
  -0.03968588  0.06873797  0.14581524       0.006
  -0.00000000  0.09165062  0.11341186       0.006
   0.03968588  0.06873797  0.09721016       0.006
   0.07937177  0.04582531  0.08100847       0.006
   0.11905765  0.02291266  0.06480678       0.006
  -0.11905765  0.16038859  0.16201694       0.006
  -0.07937177  0.13747593  0.14581524       0.006
  -0.03968588  0.11456328  0.12961355       0.006
  -0.00000000  0.13747593  0.09721016       0.006
   0.03968588  0.11456328  0.08100847       0.006
   0.07937177  0.09165062  0.06480678       0.006
   0.11905765  0.06873797  0.04860508       0.006
  -0.11905765  0.20621390  0.14581524       0.006
  -0.07937177  0.18330124  0.12961355       0.006
  -0.03968588  0.16038859  0.11341186       0.006
  -0.00000000 -0.13747593  0.19442033       0.006
   0.03968588 -0.16038859  0.17821863       0.006
   0.07937177 -0.18330124  0.16201694       0.006
   0.11905765 -0.20621390  0.14581524       0.006
  -0.11905765 -0.06873797  0.24302541       0.006
  -0.07937177 -0.09165062  0.22682371       0.006
  -0.03968588 -0.11456328  0.21062202       0.006
  -0.00000000 -0.09165062  0.17821863       0.006
   0.03968588 -0.11456328  0.16201694       0.006
   0.07937177 -0.13747593  0.14581524       0.006
   0.11905765 -0.16038859  0.12961355       0.006
  -0.11905765 -0.02291266  0.22682371       0.006
  -0.07937177 -0.04582531  0.21062202       0.006
  -0.03968588 -0.06873797  0.19442033       0.006
  -0.00000000 -0.04582531  0.16201694       0.006
   0.03968588 -0.06873797  0.14581524       0.006
   0.07937177 -0.09165062  0.12961355       0.006
   0.11905765 -0.11456328  0.11341186       0.006
  -0.11905765  0.02291266  0.21062202       0.006
  -0.07937177 -0.00000000  0.19442033       0.006
  -0.03968588 -0.02291266  0.17821863       0.006
 
 k-points in reciprocal lattice and weights: k-points                                
   0.00000000  0.00000000  0.00000000       0.003
   0.14285714 -0.00000000  0.00000000       0.006
   0.28571429 -0.00000000  0.00000000       0.006
   0.42857143 -0.00000000  0.00000000       0.006
  -0.00000000  0.14285714  0.00000000       0.006
   0.14285714  0.14285714  0.00000000       0.006
   0.28571429  0.14285714  0.00000000       0.006
   0.42857143  0.14285714  0.00000000       0.006
  -0.42857143  0.14285714 -0.00000000       0.006
  -0.28571429  0.14285714 -0.00000000       0.006
  -0.14285714  0.14285714 -0.00000000       0.006
   0.00000000  0.28571429  0.00000000       0.006
   0.14285714  0.28571429  0.00000000       0.006
   0.28571429  0.28571429  0.00000000       0.006
   0.42857143  0.28571429  0.00000000       0.006
  -0.42857143  0.28571429 -0.00000000       0.006
  -0.28571429  0.28571429  0.00000000       0.006
  -0.14285714  0.28571429  0.00000000       0.006
  -0.00000000  0.42857143 -0.00000000       0.006
   0.14285714  0.42857143  0.00000000       0.006
   0.28571429  0.42857143  0.00000000       0.006
   0.42857143  0.42857143  0.00000000       0.006
  -0.42857143  0.42857143 -0.00000000       0.006
  -0.28571429  0.42857143 -0.00000000       0.006
  -0.14285714  0.42857143  0.00000000       0.006
   0.00000000  0.00000000  0.14285714       0.006
   0.14285714  0.00000000  0.14285714       0.006
   0.28571429 -0.00000000  0.14285714       0.006
   0.42857143 -0.00000000  0.14285714       0.006
  -0.42857143  0.00000000  0.14285714       0.006
  -0.28571429 -0.00000000  0.14285714       0.006
  -0.14285714  0.00000000  0.14285714       0.006
   0.00000000  0.14285714  0.14285714       0.006
   0.14285714  0.14285714  0.14285714       0.006
   0.28571429  0.14285714  0.14285714       0.006
   0.42857143  0.14285714  0.14285714       0.006
  -0.42857143  0.14285714  0.14285714       0.006
  -0.28571429  0.14285714  0.14285714       0.006
  -0.14285714  0.14285714  0.14285714       0.006
   0.00000000  0.28571429  0.14285714       0.006
   0.14285714  0.28571429  0.14285714       0.006
   0.28571429  0.28571429  0.14285714       0.006
   0.42857143  0.28571429  0.14285714       0.006
  -0.42857143  0.28571429  0.14285714       0.006
  -0.28571429  0.28571429  0.14285714       0.006
  -0.14285714  0.28571429  0.14285714       0.006
  -0.00000000  0.42857143  0.14285714       0.006
   0.14285714  0.42857143  0.14285714       0.006
   0.28571429  0.42857143  0.14285714       0.006
   0.42857143  0.42857143  0.14285714       0.006
  -0.42857143  0.42857143  0.14285714       0.006
  -0.28571429  0.42857143  0.14285714       0.006
  -0.14285714  0.42857143  0.14285714       0.006
   0.00000000 -0.42857143  0.14285714       0.006
   0.14285714 -0.42857143  0.14285714       0.006
   0.28571429 -0.42857143  0.14285714       0.006
   0.42857143 -0.42857143  0.14285714       0.006
  -0.42857143 -0.42857143  0.14285714       0.006
  -0.28571429 -0.42857143  0.14285714       0.006
  -0.14285714 -0.42857143  0.14285714       0.006
   0.00000000 -0.28571429  0.14285714       0.006
   0.14285714 -0.28571429  0.14285714       0.006
   0.28571429 -0.28571429  0.14285714       0.006
   0.42857143 -0.28571429  0.14285714       0.006
  -0.42857143 -0.28571429  0.14285714       0.006
  -0.28571429 -0.28571429  0.14285714       0.006
  -0.14285714 -0.28571429  0.14285714       0.006
   0.00000000 -0.14285714  0.14285714       0.006
   0.14285714 -0.14285714  0.14285714       0.006
   0.28571429 -0.14285714  0.14285714       0.006
   0.42857143 -0.14285714  0.14285714       0.006
  -0.42857143 -0.14285714  0.14285714       0.006
  -0.28571429 -0.14285714  0.14285714       0.006
  -0.14285714 -0.14285714  0.14285714       0.006
   0.00000000  0.00000000  0.28571429       0.006
   0.14285714  0.00000000  0.28571429       0.006
   0.28571429 -0.00000000  0.28571429       0.006
   0.42857143 -0.00000000  0.28571429       0.006
  -0.42857143  0.00000000  0.28571429       0.006
  -0.28571429  0.00000000  0.28571429       0.006
  -0.14285714  0.00000000  0.28571429       0.006
   0.00000000  0.14285714  0.28571429       0.006
   0.14285714  0.14285714  0.28571429       0.006
   0.28571429  0.14285714  0.28571429       0.006
   0.42857143  0.14285714  0.28571429       0.006
  -0.42857143  0.14285714  0.28571429       0.006
  -0.28571429  0.14285714  0.28571429       0.006
  -0.14285714  0.14285714  0.28571429       0.006
   0.00000000  0.28571429  0.28571429       0.006
   0.14285714  0.28571429  0.28571429       0.006
   0.28571429  0.28571429  0.28571429       0.006
   0.42857143  0.28571429  0.28571429       0.006
  -0.42857143  0.28571429  0.28571429       0.006
  -0.28571429  0.28571429  0.28571429       0.006
  -0.14285714  0.28571429  0.28571429       0.006
   0.00000000  0.42857143  0.28571429       0.006
   0.14285714  0.42857143  0.28571429       0.006
   0.28571429  0.42857143  0.28571429       0.006
   0.42857143  0.42857143  0.28571429       0.006
  -0.42857143  0.42857143  0.28571429       0.006
  -0.28571429  0.42857143  0.28571429       0.006
  -0.14285714  0.42857143  0.28571429       0.006
   0.00000000 -0.42857143  0.28571429       0.006
   0.14285714 -0.42857143  0.28571429       0.006
   0.28571429 -0.42857143  0.28571429       0.006
   0.42857143 -0.42857143  0.28571429       0.006
  -0.42857143 -0.42857143  0.28571429       0.006
  -0.28571429 -0.42857143  0.28571429       0.006
  -0.14285714 -0.42857143  0.28571429       0.006
   0.00000000 -0.28571429  0.28571429       0.006
   0.14285714 -0.28571429  0.28571429       0.006
   0.28571429 -0.28571429  0.28571429       0.006
   0.42857143 -0.28571429  0.28571429       0.006
  -0.42857143 -0.28571429  0.28571429       0.006
  -0.28571429 -0.28571429  0.28571429       0.006
  -0.14285714 -0.28571429  0.28571429       0.006
   0.00000000 -0.14285714  0.28571429       0.006
   0.14285714 -0.14285714  0.28571429       0.006
   0.28571429 -0.14285714  0.28571429       0.006
   0.42857143 -0.14285714  0.28571429       0.006
  -0.42857143 -0.14285714  0.28571429       0.006
  -0.28571429 -0.14285714  0.28571429       0.006
  -0.14285714 -0.14285714  0.28571429       0.006
  -0.00000000  0.00000000  0.42857143       0.006
   0.14285714 -0.00000000  0.42857143       0.006
   0.28571429 -0.00000000  0.42857143       0.006
   0.42857143 -0.00000000  0.42857143       0.006
  -0.42857143  0.00000000  0.42857143       0.006
  -0.28571429  0.00000000  0.42857143       0.006
  -0.14285714 -0.00000000  0.42857143       0.006
   0.00000000  0.14285714  0.42857143       0.006
   0.14285714  0.14285714  0.42857143       0.006
   0.28571429  0.14285714  0.42857143       0.006
   0.42857143  0.14285714  0.42857143       0.006
  -0.42857143  0.14285714  0.42857143       0.006
  -0.28571429  0.14285714  0.42857143       0.006
  -0.14285714  0.14285714  0.42857143       0.006
  -0.00000000  0.28571429  0.42857143       0.006
   0.14285714  0.28571429  0.42857143       0.006
   0.28571429  0.28571429  0.42857143       0.006
   0.42857143  0.28571429  0.42857143       0.006
  -0.42857143  0.28571429  0.42857143       0.006
  -0.28571429  0.28571429  0.42857143       0.006
  -0.14285714  0.28571429  0.42857143       0.006
  -0.00000000  0.42857143  0.42857143       0.006
   0.14285714  0.42857143  0.42857143       0.006
   0.28571429  0.42857143  0.42857143       0.006
   0.42857143  0.42857143  0.42857143       0.006
  -0.42857143  0.42857143  0.42857143       0.006
  -0.28571429  0.42857143  0.42857143       0.006
  -0.14285714  0.42857143  0.42857143       0.006
  -0.00000000 -0.42857143  0.42857143       0.006
   0.14285714 -0.42857143  0.42857143       0.006
   0.28571429 -0.42857143  0.42857143       0.006
   0.42857143 -0.42857143  0.42857143       0.006
  -0.42857143 -0.42857143  0.42857143       0.006
  -0.28571429 -0.42857143  0.42857143       0.006
  -0.14285714 -0.42857143  0.42857143       0.006
  -0.00000000 -0.28571429  0.42857143       0.006
   0.14285714 -0.28571429  0.42857143       0.006
   0.28571429 -0.28571429  0.42857143       0.006
   0.42857143 -0.28571429  0.42857143       0.006
  -0.42857143 -0.28571429  0.42857143       0.006
  -0.28571429 -0.28571429  0.42857143       0.006
  -0.14285714 -0.28571429  0.42857143       0.006
   0.00000000 -0.14285714  0.42857143       0.006
   0.14285714 -0.14285714  0.42857143       0.006
   0.28571429 -0.14285714  0.42857143       0.006
   0.42857143 -0.14285714  0.42857143       0.006
  -0.42857143 -0.14285714  0.42857143       0.006
  -0.28571429 -0.14285714  0.42857143       0.006
  -0.14285714 -0.14285714  0.42857143       0.006
 
 position of ions in fractional coordinates (direct lattice) 
   0.00000000  0.00000000  0.00000000
 
 position of ions in cartesian coordinates  (Angst):
   0.00000000  0.00000000  0.00000000
 


--------------------------------------------------------------------------------------------------------


 k-point  1 :   0.0000 0.0000 0.0000  plane waves:     459
 k-point  2 :   0.1429-0.0000 0.0000  plane waves:     438
 k-point  3 :   0.2857-0.0000 0.0000  plane waves:     432
 k-point  4 :   0.4286-0.0000 0.0000  plane waves:     431
 k-point  5 :  -0.0000 0.1429 0.0000  plane waves:     438
 k-point  6 :   0.1429 0.1429 0.0000  plane waves:     443
 k-point  7 :   0.2857 0.1429 0.0000  plane waves:     442
 k-point  8 :   0.4286 0.1429 0.0000  plane waves:     434
 k-point  9 :  -0.4286 0.1429-0.0000  plane waves:     445
 k-point 10 :  -0.2857 0.1429-0.0000  plane waves:     434
 k-point 11 :  -0.1429 0.1429-0.0000  plane waves:     449
 k-point 12 :   0.0000 0.2857 0.0000  plane waves:     432
 k-point 13 :   0.1429 0.2857 0.0000  plane waves:     442
 k-point 14 :   0.2857 0.2857 0.0000  plane waves:     444
 k-point 15 :   0.4286 0.2857 0.0000  plane waves:     439
 k-point 16 :  -0.4286 0.2857-0.0000  plane waves:     442
 k-point 17 :  -0.2857 0.2857 0.0000  plane waves:     433
 k-point 18 :  -0.1429 0.2857 0.0000  plane waves:     434
 k-point 19 :  -0.0000 0.4286-0.0000  plane waves:     431
 k-point 20 :   0.1429 0.4286 0.0000  plane waves:     434
 k-point 21 :   0.2857 0.4286 0.0000  plane waves:     439
 k-point 22 :   0.4286 0.4286 0.0000  plane waves:     452
 k-point 23 :  -0.4286 0.4286-0.0000  plane waves:     444
 k-point 24 :  -0.2857 0.4286-0.0000  plane waves:     442
 k-point 25 :  -0.1429 0.4286 0.0000  plane waves:     445
 k-point 26 :   0.0000 0.0000 0.1429  plane waves:     438
 k-point 27 :   0.1429 0.0000 0.1429  plane waves:     443
 k-point 28 :   0.2857-0.0000 0.1429  plane waves:     442
 k-point 29 :   0.4286-0.0000 0.1429  plane waves:     434
 k-point 30 :  -0.4286 0.0000 0.1429  plane waves:     445
 k-point 31 :  -0.2857-0.0000 0.1429  plane waves:     434
 k-point 32 :  -0.1429 0.0000 0.1429  plane waves:     449
 k-point 33 :   0.0000 0.1429 0.1429  plane waves:     443
 k-point 34 :   0.1429 0.1429 0.1429  plane waves:     438
 k-point 35 :   0.2857 0.1429 0.1429  plane waves:     449
 k-point 36 :   0.4286 0.1429 0.1429  plane waves:     434
 k-point 37 :  -0.4286 0.1429 0.1429  plane waves:     445
 k-point 38 :  -0.2857 0.1429 0.1429  plane waves:     434
 k-point 39 :  -0.1429 0.1429 0.1429  plane waves:     442
 k-point 40 :   0.0000 0.2857 0.1429  plane waves:     442
 k-point 41 :   0.1429 0.2857 0.1429  plane waves:     449
 k-point 42 :   0.2857 0.2857 0.1429  plane waves:     442
 k-point 43 :   0.4286 0.2857 0.1429  plane waves:     437
 k-point 44 :  -0.4286 0.2857 0.1429  plane waves:     438
 k-point 45 :  -0.2857 0.2857 0.1429  plane waves:     438
 k-point 46 :  -0.1429 0.2857 0.1429  plane waves:     437
 k-point 47 :  -0.0000 0.4286 0.1429  plane waves:     434
 k-point 48 :   0.1429 0.4286 0.1429  plane waves:     434
 k-point 49 :   0.2857 0.4286 0.1429  plane waves:     437
 k-point 50 :   0.4286 0.4286 0.1429  plane waves:     439
 k-point 51 :  -0.4286 0.4286 0.1429  plane waves:     435
 k-point 52 :  -0.2857 0.4286 0.1429  plane waves:     438
 k-point 53 :  -0.1429 0.4286 0.1429  plane waves:     438
 k-point 54 :   0.0000-0.4286 0.1429  plane waves:     445
 k-point 55 :   0.1429-0.4286 0.1429  plane waves:     445
 k-point 56 :   0.2857-0.4286 0.1429  plane waves:     438
 k-point 57 :   0.4286-0.4286 0.1429  plane waves:     435
 k-point 58 :  -0.4286-0.4286 0.1429  plane waves:     444
 k-point 59 :  -0.2857-0.4286 0.1429  plane waves:     435
 k-point 60 :  -0.1429-0.4286 0.1429  plane waves:     438
 k-point 61 :   0.0000-0.2857 0.1429  plane waves:     434
 k-point 62 :   0.1429-0.2857 0.1429  plane waves:     434
 k-point 63 :   0.2857-0.2857 0.1429  plane waves:     438
 k-point 64 :   0.4286-0.2857 0.1429  plane waves:     438
 k-point 65 :  -0.4286-0.2857 0.1429  plane waves:     435
 k-point 66 :  -0.2857-0.2857 0.1429  plane waves:     439
 k-point 67 :  -0.1429-0.2857 0.1429  plane waves:     437
 k-point 68 :   0.0000-0.1429 0.1429  plane waves:     449
 k-point 69 :   0.1429-0.1429 0.1429  plane waves:     442
 k-point 70 :   0.2857-0.1429 0.1429  plane waves:     437
 k-point 71 :   0.4286-0.1429 0.1429  plane waves:     438
 k-point 72 :  -0.4286-0.1429 0.1429  plane waves:     438
 k-point 73 :  -0.2857-0.1429 0.1429  plane waves:     437
 k-point 74 :  -0.1429-0.1429 0.1429  plane waves:     442
 k-point 75 :   0.0000 0.0000 0.2857  plane waves:     432
 k-point 76 :   0.1429 0.0000 0.2857  plane waves:     442
 k-point 77 :   0.2857-0.0000 0.2857  plane waves:     444
 k-point 78 :   0.4286-0.0000 0.2857  plane waves:     439
 k-point 79 :  -0.4286 0.0000 0.2857  plane waves:     442
 k-point 80 :  -0.2857 0.0000 0.2857  plane waves:     433
 k-point 81 :  -0.1429 0.0000 0.2857  plane waves:     434
 k-point 82 :   0.0000 0.1429 0.2857  plane waves:     442
 k-point 83 :   0.1429 0.1429 0.2857  plane waves:     449
 k-point 84 :   0.2857 0.1429 0.2857  plane waves:     442
 k-point 85 :   0.4286 0.1429 0.2857  plane waves:     437
 k-point 86 :  -0.4286 0.1429 0.2857  plane waves:     438
 k-point 87 :  -0.2857 0.1429 0.2857  plane waves:     438
 k-point 88 :  -0.1429 0.1429 0.2857  plane waves:     437
 k-point 89 :   0.0000 0.2857 0.2857  plane waves:     444
 k-point 90 :   0.1429 0.2857 0.2857  plane waves:     442
 k-point 91 :   0.2857 0.2857 0.2857  plane waves:     432
 k-point 92 :   0.4286 0.2857 0.2857  plane waves:     434
 k-point 93 :  -0.4286 0.2857 0.2857  plane waves:     433
 k-point 94 :  -0.2857 0.2857 0.2857  plane waves:     442
 k-point 95 :  -0.1429 0.2857 0.2857  plane waves:     439
 k-point 96 :   0.0000 0.4286 0.2857  plane waves:     439
 k-point 97 :   0.1429 0.4286 0.2857  plane waves:     437
 k-point 98 :   0.2857 0.4286 0.2857  plane waves:     434
 k-point 99 :   0.4286 0.4286 0.2857  plane waves:     434
 k-point ** :  -0.4286 0.4286 0.2857  plane waves:     438
 k-point ** :  -0.2857 0.4286 0.2857  plane waves:     438
 k-point ** :  -0.1429 0.4286 0.2857  plane waves:     435
 k-point ** :   0.0000-0.4286 0.2857  plane waves:     442
 k-point ** :   0.1429-0.4286 0.2857  plane waves:     438
 k-point ** :   0.2857-0.4286 0.2857  plane waves:     433
 k-point ** :   0.4286-0.4286 0.2857  plane waves:     438
 k-point ** :  -0.4286-0.4286 0.2857  plane waves:     442
 k-point ** :  -0.2857-0.4286 0.2857  plane waves:     438
 k-point ** :  -0.1429-0.4286 0.2857  plane waves:     438
 k-point ** :   0.0000-0.2857 0.2857  plane waves:     433
 k-point ** :   0.1429-0.2857 0.2857  plane waves:     438
 k-point ** :   0.2857-0.2857 0.2857  plane waves:     442
 k-point ** :   0.4286-0.2857 0.2857  plane waves:     438
 k-point ** :  -0.4286-0.2857 0.2857  plane waves:     438
 k-point ** :  -0.2857-0.2857 0.2857  plane waves:     442
 k-point ** :  -0.1429-0.2857 0.2857  plane waves:     438
 k-point ** :   0.0000-0.1429 0.2857  plane waves:     434
 k-point ** :   0.1429-0.1429 0.2857  plane waves:     437
 k-point ** :   0.2857-0.1429 0.2857  plane waves:     439
 k-point ** :   0.4286-0.1429 0.2857  plane waves:     435
 k-point ** :  -0.4286-0.1429 0.2857  plane waves:     438
 k-point ** :  -0.2857-0.1429 0.2857  plane waves:     438
 k-point ** :  -0.1429-0.1429 0.2857  plane waves:     434
 k-point ** :  -0.0000 0.0000 0.4286  plane waves:     431
 k-point ** :   0.1429-0.0000 0.4286  plane waves:     434
 k-point ** :   0.2857-0.0000 0.4286  plane waves:     439
 k-point ** :   0.4286-0.0000 0.4286  plane waves:     452
 k-point ** :  -0.4286 0.0000 0.4286  plane waves:     444
 k-point ** :  -0.2857 0.0000 0.4286  plane waves:     442
[...]
 

 k-point 151 :      -0.1429    0.4286    0.4286
  band No. DFT-energies  QP-energies  QP-e(diag)   sigma(DFT)    Z            occupation

      1     -24.2176     -24.2301     -24.2297     -24.2337       0.7519       2.0000
      2     -10.6722     -10.6746     -10.6716     -10.6715       0.8876       2.0000
      3      -9.9893      -9.9916      -9.9913      -9.9916       0.8878       2.0000
      4      -9.8040      -9.8063      -9.8058      -9.8060       0.8879       2.0000
      5       8.2510       8.2543       8.2538       8.2540       0.9322       0.0000
      6       9.9950       9.9987       9.9985       9.9988       0.9268       0.0000
      7      11.9503      11.9544      11.9512      11.9512       0.9149       0.0000
      8      16.0517      16.0565      16.0560      16.0565       0.9074       0.0000
 

 k-point 152 :      -0.0000   -0.4286    0.4286
  band No. DFT-energies  QP-energies  QP-e(diag)   sigma(DFT)    Z            occupation

      1     -24.2176     -24.2301     -24.2297     -24.2337       0.7518       2.0000
      2     -10.6722     -10.6746     -10.6716     -10.6715       0.8877       2.0000
      3      -9.9894      -9.9917      -9.9914      -9.9916       0.8878       2.0000
      4      -9.8039      -9.8062      -9.8057      -9.8060       0.8879       2.0000
      5       8.2510       8.2543       8.2538       8.2540       0.9322       0.0000
      6       9.9949       9.9987       9.9985       9.9988       0.9269       0.0000
      7      11.9503      11.9543      11.9511      11.9512       0.9149       0.0000
      8      16.0518      16.0567      16.0562      16.0566       0.9074       0.0000
 

 k-point 153 :       0.1429   -0.4286    0.4286
  band No. DFT-energies  QP-energies  QP-e(diag)   sigma(DFT)    Z            occupation

      1     -24.2299     -24.2425     -24.2419     -24.2458       0.7516       2.0000
      2     -10.5788     -10.5810     -10.5789     -10.5789       0.8876       2.0000
      3      -9.9979     -10.0001      -9.9998     -10.0000       0.8875       2.0000
      4      -9.8235      -9.8257      -9.8251      -9.8253       0.8876       2.0000
      5       8.5590       8.5624       8.5617       8.5619       0.9303       0.0000
      6      10.3113      10.3151      10.3147      10.3150       0.9256       0.0000
      7      11.4608      11.4646      11.4627      11.4628       0.9195       0.0000
      8      14.6500      14.6544      14.6535      14.6538       0.9143       0.0000
 

 k-point 154 :       0.2857   -0.4286    0.4286
  band No. DFT-energies  QP-energies  QP-e(diag)   sigma(DFT)    Z            occupation

      1     -24.2546     -24.2673     -24.2663     -24.2702       0.7508       2.0000
      2     -10.5814     -10.5836     -10.5822     -10.5823       0.8878       2.0000
      3      -9.9885      -9.9907      -9.9901      -9.9903       0.8877       2.0000
      4      -9.6501      -9.6524      -9.6522      -9.6524       0.8883       2.0000
      5       9.0954       9.0991       9.0977       9.0978       0.9268       0.0000
      6      10.1167      10.1205      10.1195      10.1198       0.9259       0.0000
      7      11.3563      11.3601      11.3593      11.3595       0.9225       0.0000
      8      13.9865      13.9909      13.9907      13.9911       0.9179       0.0000
 

 k-point 155 :       0.4286   -0.4286    0.4286
  band No. DFT-energies  QP-energies  QP-e(diag)   sigma(DFT)    Z            occupation

      1     -24.2740     -24.2866     -24.2856     -24.2895       0.7503       2.0000
      2     -10.7808     -10.7830     -10.7809     -10.7809       0.8888       2.0000
      3      -9.7226      -9.7249      -9.7246      -9.7249       0.8878       2.0000
      4      -9.5384      -9.5408      -9.5407      -9.5410       0.8884       2.0000
      5       8.7560       8.7598       8.7584       8.7586       0.9277       0.0000
      6      10.0700      10.0735      10.0719      10.0720       0.9241       0.0000
      7      12.1640      12.1679      12.1671      12.1674       0.9209       0.0000
      8      13.3717      13.3759      13.3759      13.3763       0.9207       0.0000
 

 k-point 156 :      -0.4286   -0.4286    0.4286
  band No. DFT-energies  QP-energies  QP-e(diag)   sigma(DFT)    Z            occupation

      1     -24.2740     -24.2866     -24.2856     -24.2895       0.7504       2.0000
      2     -10.7808     -10.7830     -10.7808     -10.7808       0.8889       2.0000
      3      -9.7225      -9.7248      -9.7245      -9.7247       0.8878       2.0000
      4      -9.5386      -9.5409      -9.5408      -9.5411       0.8884       2.0000
      5       8.7559       8.7598       8.7583       8.7585       0.9277       0.0000
      6      10.0699      10.0735      10.0718      10.0719       0.9241       0.0000
      7      12.1639      12.1678      12.1670      12.1673       0.9209       0.0000
      8      13.3720      13.3762      13.3762      13.3766       0.9207       0.0000
 

 k-point 157 :      -0.2857   -0.4286    0.4286
  band No. DFT-energies  QP-energies  QP-e(diag)   sigma(DFT)    Z            occupation

      1     -24.2546     -24.2673     -24.2663     -24.2702       0.7509       2.0000
      2     -10.5813     -10.5835     -10.5822     -10.5823       0.8878       2.0000
      3      -9.9883      -9.9906      -9.9900      -9.9902       0.8878       2.0000
      4      -9.6502      -9.6525      -9.6523      -9.6526       0.8883       2.0000
      5       9.0952       9.0990       9.0975       9.0977       0.9269       0.0000
      6      10.1165      10.1202      10.1193      10.1195       0.9259       0.0000
      7      11.3561      11.3600      11.3591      11.3594       0.9225       0.0000
      8      13.9866      13.9911      13.9908      13.9912       0.9179       0.0000
 

 k-point 158 :      -0.1429   -0.4286    0.4286
  band No. DFT-energies  QP-energies  QP-e(diag)   sigma(DFT)    Z            occupation

      1     -24.2299     -24.2425     -24.2419     -24.2458       0.7516       2.0000
      2     -10.5788     -10.5810     -10.5789     -10.5789       0.8876       2.0000
      3      -9.9977     -10.0000      -9.9997      -9.9999       0.8876       2.0000
      4      -9.8236      -9.8259      -9.8252      -9.8254       0.8877       2.0000
      5       8.5589       8.5623       8.5615       8.5617       0.9304       0.0000
      6      10.3114      10.3152      10.3148      10.3151       0.9256       0.0000
      7      11.4603      11.4642      11.4622      11.4624       0.9196       0.0000
      8      14.6490      14.6534      14.6525      14.6528       0.9142       0.0000
 

 k-point 159 :      -0.0000   -0.2857    0.4286
  band No. DFT-energies  QP-energies  QP-e(diag)   sigma(DFT)    Z            occupation

      1     -24.2363     -24.2489     -24.2483     -24.2522       0.7514       2.0000
      2     -10.5651     -10.5673     -10.5658     -10.5658       0.8878       2.0000
      3     -10.1096     -10.1119     -10.1110     -10.1112       0.8881       2.0000
      4      -9.6808      -9.6831      -9.6826      -9.6828       0.8882       2.0000
      5       9.0726       9.0762       9.0754       9.0756       0.9294       0.0000
      6       9.9932       9.9971       9.9960       9.9962       0.9248       0.0000
      7      11.5052      11.5091      11.5076      11.5078       0.9199       0.0000
      8      14.5148      14.5194      14.5189      14.5193       0.9142       0.0000
 

 k-point 160 :       0.1429   -0.2857    0.4286
  band No. DFT-energies  QP-energies  QP-e(diag)   sigma(DFT)    Z            occupation

      1     -24.2228     -24.2354     -24.2350     -24.2390       0.7518       2.0000
      2     -10.3819     -10.3841     -10.3828     -10.3829       0.8880       2.0000
      3     -10.2968     -10.2990     -10.2981     -10.2983       0.8878       2.0000
      4      -9.7978      -9.8001      -9.7998      -9.8001       0.8881       2.0000
      5       9.1137       9.1172       9.1167       9.1169       0.9295       0.0000
      6      10.4617      10.4656      10.4646      10.4648       0.9238       0.0000
      7      11.2246      11.2285      11.2271      11.2273       0.9208       0.0000
      8      13.8004      13.8046      13.8044      13.8047       0.9202       0.0000
 

 k-point 161 :       0.2857   -0.2857    0.4286
  band No. DFT-energies  QP-energies  QP-e(diag)   sigma(DFT)    Z            occupation

      1     -24.2228     -24.2354     -24.2350     -24.2390       0.7517       2.0000
      2     -10.3820     -10.3842     -10.3829     -10.3831       0.8879       2.0000
      3     -10.2966     -10.2988     -10.2980     -10.2981       0.8879       2.0000
      4      -9.7978      -9.8001      -9.7998      -9.8000       0.8881       2.0000
      5       9.1138       9.1173       9.1167       9.1170       0.9294       0.0000
      6      10.4621      10.4660      10.4650      10.4653       0.9237       0.0000
      7      11.2243      11.2282      11.2268      11.2270       0.9208       0.0000
      8      13.8001      13.8044      13.8041      13.8045       0.9203       0.0000
 

 k-point 162 :       0.4286   -0.2857    0.4286
  band No. DFT-energies  QP-energies  QP-e(diag)   sigma(DFT)    Z            occupation

      1     -24.2363     -24.2489     -24.2483     -24.2522       0.7514       2.0000
      2     -10.5651     -10.5673     -10.5657     -10.5658       0.8878       2.0000
      3     -10.1097     -10.1119     -10.1110     -10.1112       0.8881       2.0000
      4      -9.6807      -9.6830      -9.6825      -9.6827       0.8882       2.0000
      5       9.0729       9.0764       9.0757       9.0759       0.9294       0.0000
      6       9.9937       9.9976       9.9964       9.9966       0.9248       0.0000
      7      11.5050      11.5089      11.5074      11.5076       0.9199       0.0000
      8      14.5142      14.5189      14.5183      14.5187       0.9141       0.0000
 

 k-point 163 :      -0.4286   -0.2857    0.4286
  band No. DFT-energies  QP-energies  QP-e(diag)   sigma(DFT)    Z            occupation

      1     -24.2546     -24.2673     -24.2663     -24.2703       0.7508       2.0000
      2     -10.5813     -10.5835     -10.5822     -10.5823       0.8878       2.0000
      3      -9.9883      -9.9906      -9.9900      -9.9902       0.8877       2.0000
      4      -9.6501      -9.6524      -9.6522      -9.6525       0.8882       2.0000
      5       9.0953       9.0991       9.0976       9.0978       0.9268       0.0000
      6      10.1166      10.1204      10.1195      10.1197       0.9259       0.0000
      7      11.3562      11.3600      11.3592      11.3594       0.9225       0.0000
      8      13.9864      13.9908      13.9906      13.9910       0.9179       0.0000
 

 k-point 164 :      -0.2857   -0.2857    0.4286
  band No. DFT-energies  QP-energies  QP-e(diag)   sigma(DFT)    Z            occupation

      1     -24.2625     -24.2752     -24.2742     -24.2781       0.7504       2.0000
      2     -10.4723     -10.4745     -10.4735     -10.4736       0.8878       2.0000
      3     -10.1292     -10.1315     -10.1305     -10.1307       0.8880       2.0000
      4      -9.5626      -9.5649      -9.5648      -9.5650       0.8881       2.0000
      5       9.1274       9.1313       9.1294       9.1295       0.9255       0.0000
      6      10.3148      10.3184      10.3180      10.3183       0.9278       0.0000
      7      11.1131      11.1170      11.1160      11.1162       0.9222       0.0000
      8      14.0845      14.0890      14.0888      14.0892       0.9177       0.0000
 

 k-point 165 :      -0.1429   -0.2857    0.4286
  band No. DFT-energies  QP-energies  QP-e(diag)   sigma(DFT)    Z            occupation

      1     -24.2546     -24.2673     -24.2664     -24.2703       0.7508       2.0000
      2     -10.5814     -10.5836     -10.5822     -10.5823       0.8878       2.0000
      3      -9.9882      -9.9905      -9.9899      -9.9901       0.8878       2.0000
      4      -9.6503      -9.6526      -9.6523      -9.6526       0.8882       2.0000
      5       9.0952       9.0989       9.0974       9.0976       0.9269       0.0000
      6      10.1162      10.1200      10.1191      10.1193       0.9259       0.0000
      7      11.3563      11.3602      11.3593      11.3596       0.9225       0.0000
      8      13.9868      13.9912      13.9910      13.9913       0.9179       0.0000
 

 k-point 166 :       0.0000   -0.1429    0.4286
  band No. DFT-energies  QP-energies  QP-e(diag)   sigma(DFT)    Z            occupation

      1     -24.2740     -24.2866     -24.2856     -24.2895       0.7502       2.0000
      2     -10.7809     -10.7831     -10.7809     -10.7809       0.8887       2.0000
      3      -9.7225      -9.7248      -9.7244      -9.7247       0.8878       2.0000
      4      -9.5385      -9.5408      -9.5408      -9.5411       0.8884       2.0000
      5       8.7556       8.7595       8.7580       8.7582       0.9278       0.0000
      6      10.0697      10.0733      10.0716      10.0718       0.9241       0.0000
      7      12.1642      12.1681      12.1673      12.1675       0.9209       0.0000
      8      13.3721      13.3764      13.3763      13.3767       0.9207       0.0000
 

 k-point 167 :       0.1429   -0.1429    0.4286
  band No. DFT-energies  QP-energies  QP-e(diag)   sigma(DFT)    Z            occupation

      1     -24.2546     -24.2673     -24.2664     -24.2703       0.7507       2.0000
      2     -10.5815     -10.5837     -10.5823     -10.5824       0.8876       2.0000
      3      -9.9884      -9.9907      -9.9900      -9.9902       0.8877       2.0000
      4      -9.6501      -9.6524      -9.6521      -9.6524       0.8883       2.0000
      5       9.0952       9.0989       9.0975       9.0976       0.9269       0.0000
      6      10.1163      10.1201      10.1192      10.1194       0.9259       0.0000
      7      11.3564      11.3603      11.3594      11.3597       0.9224       0.0000
      8      13.9867      13.9912      13.9909      13.9913       0.9179       0.0000
 

 k-point 168 :       0.2857   -0.1429    0.4286
  band No. DFT-energies  QP-energies  QP-e(diag)   sigma(DFT)    Z            occupation

      1     -24.2300     -24.2425     -24.2419     -24.2458       0.7515       2.0000
      2     -10.5789     -10.5811     -10.5790     -10.5791       0.8875       2.0000
      3      -9.9977     -10.0000      -9.9996      -9.9999       0.8876       2.0000
      4      -9.8234      -9.8257      -9.8250      -9.8252       0.8877       2.0000
      5       8.5590       8.5625       8.5617       8.5619       0.9304       0.0000
      6      10.3116      10.3154      10.3150      10.3153       0.9256       0.0000
      7      11.4604      11.4643      11.4623      11.4624       0.9196       0.0000
      8      14.6495      14.6540      14.6530      14.6533       0.9142       0.0000
 

 k-point 169 :       0.4286   -0.1429    0.4286
  band No. DFT-energies  QP-energies  QP-e(diag)   sigma(DFT)    Z            occupation

      1     -24.2177     -24.2301     -24.2298     -24.2338       0.7518       2.0000
      2     -10.6723     -10.6747     -10.6716     -10.6716       0.8876       2.0000
      3      -9.9893      -9.9915      -9.9912      -9.9915       0.8878       2.0000
      4      -9.8038      -9.8061      -9.8057      -9.8059       0.8879       2.0000
      5       8.2512       8.2545       8.2540       8.2542       0.9322       0.0000
      6       9.9953       9.9990       9.9988       9.9991       0.9268       0.0000
      7      11.9502      11.9542      11.9510      11.9510       0.9149       0.0000
      8      16.0508      16.0556      16.0552      16.0556       0.9073       0.0000
 

 k-point 170 :      -0.4286   -0.1429    0.4286
  band No. DFT-energies  QP-energies  QP-e(diag)   sigma(DFT)    Z            occupation

      1     -24.2300     -24.2425     -24.2419     -24.2458       0.7515       2.0000
      2     -10.5789     -10.5811     -10.5790     -10.5790       0.8876       2.0000
      3      -9.9977      -9.9999      -9.9996      -9.9998       0.8876       2.0000
      4      -9.8234      -9.8257      -9.8250      -9.8253       0.8876       2.0000
      5       8.5590       8.5625       8.5617       8.5619       0.9303       0.0000
      6      10.3115      10.3153      10.3150      10.3152       0.9256       0.0000
      7      11.4603      11.4642      11.4622      11.4624       0.9196       0.0000
      8      14.6495      14.6539      14.6529      14.6533       0.9142       0.0000
 

 k-point 171 :      -0.2857   -0.1429    0.4286
  band No. DFT-energies  QP-energies  QP-e(diag)   sigma(DFT)    Z            occupation

      1     -24.2546     -24.2673     -24.2664     -24.2703       0.7506       2.0000
      2     -10.5814     -10.5836     -10.5822     -10.5824       0.8877       2.0000
      3      -9.9883      -9.9905      -9.9899      -9.9901       0.8878       2.0000
      4      -9.6501      -9.6524      -9.6522      -9.6524       0.8883       2.0000
      5       9.0953       9.0990       9.0975       9.0977       0.9269       0.0000
      6      10.1162      10.1200      10.1191      10.1193       0.9259       0.0000
      7      11.3564      11.3602      11.3594      11.3596       0.9224       0.0000
      8      13.9868      13.9913      13.9910      13.9914       0.9178       0.0000
 

 k-point 172 :      -0.1429   -0.1429    0.4286
  band No. DFT-energies  QP-energies  QP-e(diag)   sigma(DFT)    Z            occupation

      1     -24.2740     -24.2866     -24.2856     -24.2895       0.7503       2.0000
      2     -10.7809     -10.7831     -10.7809     -10.7809       0.8888       2.0000
      3      -9.7223      -9.7247      -9.7243      -9.7246       0.8878       2.0000
      4      -9.5386      -9.5409      -9.5409      -9.5412       0.8884       2.0000
      5       8.7556       8.7595       8.7580       8.7582       0.9277       0.0000
      6      10.0697      10.0733      10.0716      10.0717       0.9242       0.0000
      7      12.1641      12.1680      12.1672      12.1675       0.9209       0.0000
      8      13.3722      13.3764      13.3764      13.3768       0.9207       0.0000
 


--------------------------------------------------------------------------------------------------------



IMPORTANT INFORMATION: All symmetrisations will be switched off!
NOSYMM: (Re-)initialisation of all symmetry stuff for point group C_1.

   GW_DIAG:  cpu time    0.8452: real time    0.8492
    GWLOOP:  cpu time  573.2047: real time  574.0148
 writing wavefunctions
    --------------------------------------------
   GWTOTAL:  cpu time  573.8622: real time  574.7886
    4ORBIT:  cpu time    0.0000: real time    0.0000

 total amount of memory used by VASP MPI-rank0    94721. kBytes
=======================================================================

   base      :      30000. kBytes
   nonl-proj :      11400. kBytes
   fftplans  :       8151. kBytes
   grid      :       2654. kBytes
   one-center:         15. kBytes
   HF        :        129. kBytes
   nonlr-proj:        102. kBytes
   wavefun   :      42270. kBytes
   2eintegral:          0. kBytes
   fockhandle:          0. kBytes
   response  :          0. kBytes
   cacher    :          0. kBytes
 
  
  
 General timing and accounting informations for this job:
 ========================================================
  
                  Total CPU time used (sec):      577.520
                            User time (sec):      573.559
                          System time (sec):        3.961
                         Elapsed time (sec):      578.229
  
                   Maximum memory used (kb):      764888.
                   Average memory used (kb):           0.
  
                          Minor page faults:       103779
                          Major page faults:            0
                 Voluntary context switches:        10338
