Og_FCC                                  
   1.00000000000000     
     2.974221    0.000000    0.000000
     1.487110    2.575751    0.000000
     1.487110    0.858584    2.428441
   Ne
     1
Direct
  0.000000  0.000000  0.000000
 
   28   28   28
  191.39      187.82      175.08      150.09      114.18      74.836      41.459      19.531      8.1313      3.1521    
  1.3906     0.91469     0.90664      1.0361      1.1093      1.0361     0.90664     0.91469      1.3906      3.1521    
  8.1313      19.531      41.459      74.836      114.18      150.09      175.08      187.82      187.82      179.60    
  160.39      129.28      91.035      54.654      27.746      12.223      4.8738      1.9596      1.0546     0.87684    
 0.96673      1.0815      1.0818     0.96644     0.87713      1.0543      1.9599      4.8735      12.223      27.746    
  54.654      91.037      129.28      160.40      179.60      187.82      175.08      160.39      134.44      99.924    
  64.115      34.957      16.390      6.8650      2.7281      1.2894     0.89979     0.90244      1.0088      1.0715    
  1.0089     0.90237     0.89991      1.2892      2.7284      6.8646      16.390      34.957      64.116      99.925    
  134.44      160.39      175.08      179.60      150.09      129.28      99.924      67.537      39.173      19.547    
  8.6533      3.5398      1.5721     0.96464     0.85753     0.91966     0.99441     0.99409     0.91998     0.85720    
 0.96499      1.5717      3.5402      8.6531      19.547      39.173      67.536      99.925      129.28      150.09    
  160.39      160.40      114.18      91.035      64.115      39.173      20.727      9.7198      4.1636      1.8302    
  1.0395     0.83811     0.84122     0.88619     0.90777     0.88620     0.84120     0.83814      1.0395      1.8303    
  4.1632      9.7203      20.726      39.176      64.114      91.036      114.19      129.28      134.44      129.28    
  74.836      54.654      34.957      19.547      9.7198      4.3976      1.9848      1.0967     0.83648     0.79493    
 0.79371     0.78722     0.78710     0.79384     0.79477     0.83668      1.0964      1.9854      4.3966      9.7217    
  19.544      34.959      54.654      74.832      91.036      99.925      99.925      91.037      41.459      27.746    
  16.390      8.6533      4.1636      1.9848      1.1181     0.84005     0.77950     0.74353     0.68356     0.64937    
 0.68343     0.74380     0.77906     0.84076      1.1170      1.9864      4.1609      8.6563      16.388      27.745    
  41.464      54.654      64.114      67.536      64.116      54.654      19.531      12.223      6.8650      3.5398    
  1.8302      1.0967     0.84005     0.77771     0.72813     0.62364     0.52111     0.52162     0.62311     0.72874    
 0.77692     0.84106      1.0953      1.8322      3.5381      6.8644      12.228      19.523      27.745      34.959    
  39.176      39.173      34.957      27.746      8.1313      4.8739      2.7281      1.5721      1.0395     0.83648    
 0.77950     0.72813     0.60547     0.44563     0.37018     0.44568     0.60536     0.72842     0.77915     0.83697    
  1.0388      1.5720      2.7311      4.8677      8.1360      12.228      16.388      19.544      20.726      19.547    
  16.390      12.223      3.1521      1.9596      1.2894     0.96464     0.83811     0.79493     0.74353     0.62364    
 0.44563     0.30781     0.30771     0.44576     0.62337     0.74376     0.79463     0.83855     0.96499      1.2867    
  1.9633      3.1516      4.8677      6.8644      8.6563      9.7217      9.7203      8.6531      6.8646      4.8735    
  1.3906      1.0546     0.89979     0.85753     0.84122     0.79371     0.68356     0.52111     0.37018     0.30771    
 0.37012     0.52136     0.68340     0.79392     0.84085     0.85724     0.90207      1.0524      1.3899      1.9633    
  2.7311      3.5381      4.1609      4.3966      4.1632      3.5402      2.7284      1.9599     0.91469     0.87684    
 0.90244     0.91966     0.88619     0.78722     0.64937     0.52162     0.44568     0.44576     0.52136     0.64944    
 0.78713     0.88645     0.91996     0.90034     0.87831     0.91542      1.0524      1.2867      1.5720      1.8322    
  1.9864      1.9854      1.8303      1.5717      1.2892      1.0543     0.90664     0.96673      1.0088     0.99441    
 0.90777     0.78710     0.68343     0.62311     0.60536     0.62337     0.68340     0.78714     0.90750     0.99424    
  1.0108     0.96592     0.90583     0.87831     0.90207     0.96499      1.0388      1.0953      1.1170      1.0964    
  1.0395     0.96499     0.89991     0.87713      1.0361      1.0815      1.0715     0.99409     0.88620     0.79384    
 0.74380     0.72874     0.72842     0.74376     0.79392     0.88645     0.99424      1.0696      1.0819      1.0368    
 0.96592     0.90034     0.85724     0.83855     0.83697     0.84106     0.84076     0.83668     0.83814     0.85720    
 0.90237     0.96644      1.1093      1.0818      1.0089     0.91998     0.84120     0.79477     0.77906     0.77692    
 0.77915     0.79463     0.84085     0.91996      1.0108      1.0819      1.1085      1.0819      1.0108     0.91996    
 0.84085     0.79463     0.77915     0.77692     0.77906     0.79477     0.84120     0.91998      1.0089      1.0818    
  1.0361     0.96644     0.90237     0.85720     0.83814     0.83668     0.84076     0.84106     0.83697     0.83855    
 0.85724     0.90034     0.96592      1.0368      1.0819      1.0696     0.99424     0.88645     0.79392     0.74376    
 0.72842     0.72874     0.74380     0.79384     0.88620     0.99409      1.0715      1.0815     0.90664     0.87713    
 0.89991     0.96499      1.0395      1.0964      1.1170      1.0953      1.0388     0.96499     0.90207     0.87831    
 0.90583     0.96592      1.0108     0.99424     0.90750     0.78714     0.68340     0.62337     0.60536     0.62311    
 0.68343     0.78710     0.90777     0.99441      1.0088     0.96673     0.91469      1.0543      1.2892      1.5717    
  1.8303      1.9854      1.9864      1.8322      1.5720      1.2867      1.0524     0.91542     0.87831     0.90034    
 0.91996     0.88645     0.78713     0.64944     0.52136     0.44576     0.44568     0.52162     0.64937     0.78722    
 0.88619     0.91966     0.90244     0.87684      1.3906      1.9599      2.7284      3.5402      4.1632      4.3966    
  4.1609      3.5381      2.7311      1.9633      1.3899      1.0524     0.90207     0.85724     0.84085     0.79392    
 0.68340     0.52136     0.37012     0.30771     0.37018     0.52111     0.68356     0.79371     0.84122     0.85753    
 0.89979      1.0546      3.1521      4.8735      6.8646      8.6531      9.7203      9.7217      8.6563      6.8644    
  4.8677      3.1516      1.9633      1.2867     0.96499     0.83855     0.79463     0.74376     0.62337     0.44576    
 0.30771     0.30781     0.44563     0.62364     0.74353     0.79493     0.83811     0.96464      1.2894      1.9596    
  8.1313      12.223      16.390      19.547      20.726      19.544      16.388      12.228      8.1360      4.8677    
  2.7311      1.5720      1.0388     0.83697     0.77915     0.72842     0.60536     0.44568     0.37018     0.44563    
 0.60547     0.72813     0.77950     0.83648      1.0395      1.5721      2.7281      4.8739      19.531      27.746    
  34.957      39.173      39.176      34.959      27.745      19.523      12.228      6.8644      3.5381      1.8322    
  1.0953     0.84106     0.77692     0.72874     0.62311     0.52162     0.52111     0.62364     0.72813     0.77771    
 0.84005      1.0967      1.8302      3.5398      6.8650      12.223      41.459      54.654      64.116      67.536    
  64.114      54.654      41.464      27.745      16.388      8.6563      4.1609      1.9864      1.1170     0.84076    
 0.77906     0.74380     0.68343     0.64937     0.68356     0.74353     0.77950     0.84005      1.1181      1.9848    
  4.1636      8.6533      16.390      27.746      74.836      91.037      99.925      99.925      91.036      74.832    
  54.654      34.959      19.544      9.7217      4.3966      1.9854      1.0964     0.83668     0.79477     0.79384    
 0.78710     0.78722     0.79371     0.79493     0.83648      1.0967      1.9848      4.3976      9.7198      19.547    
  34.957      54.654      114.18      129.28      134.44      129.28      114.19      91.036      64.114      39.176    
  20.726      9.7203      4.1632      1.8303      1.0395     0.83814     0.84120     0.88620     0.90777     0.88619    
 0.84122     0.83811      1.0395      1.8302      4.1636      9.7198      20.727      39.173      64.115      91.035    
  150.09      160.40      160.39      150.09      129.28      99.925      67.536      39.173      19.547      8.6531    
  3.5402      1.5717     0.96499     0.85720     0.91998     0.99409     0.99441     0.91966     0.85753     0.96464    
  1.5721      3.5398      8.6533      19.547      39.173      67.537      99.924      129.28      175.08      179.60    
  175.08      160.39      134.44      99.925      64.116      34.957      16.390      6.8646      2.7284      1.2892    
 0.89991     0.90237      1.0089      1.0715      1.0088     0.90244     0.89979      1.2894      2.7281      6.8650    
  16.390      34.957      64.115      99.924      134.44      160.39      187.82      187.82      179.60      160.40    
  129.28      91.037      54.654      27.746      12.223      4.8735      1.9599      1.0543     0.87713     0.96644    
  1.0818      1.0815     0.96673     0.87684      1.0546      1.9596      4.8738      12.223      27.746      54.654    
  91.035      129.28      160.39      179.60      187.82      179.60      160.39      129.28      91.035      54.654    
  27.746      12.223      4.8738      1.9596      1.0546     0.87684     0.96673      1.0815      1.0818     0.96644    
 0.87713      1.0543      1.9599      4.8735      12.223      27.746      54.654      91.037      129.28      160.40    
  179.60      187.82      179.60      165.41      139.63      104.54      67.531      37.005      17.373      7.2665    
  2.8672      1.3288     0.91055     0.90958      1.0227      1.0893      1.0228     0.90943     0.91078      1.3284    
  2.8676      7.2659      17.374      37.003      67.531      104.54      139.63      165.41      179.60      183.87    
  160.39      139.63      109.28      74.780      43.823      21.962      9.7081      3.9412      1.6993      1.0040    
 0.87473     0.94521      1.0333      1.0331     0.94546     0.87447      1.0043      1.6990      3.9416      9.7076    
  21.962      43.822      74.780      109.28      139.62      160.40      170.35      170.35      129.28      104.54    
  74.780      46.326      24.681      11.559      4.9146      2.0887      1.1233     0.86711     0.87106     0.93591    
 0.97165     0.93585     0.87119     0.86690      1.1236      2.0883      4.9153      11.558      24.681      46.326    
  74.779      104.55      129.28      144.89      150.11      144.89      91.035      67.531      43.823      24.681    
  12.252      5.4958      2.3879      1.2294     0.87736     0.81923     0.83987     0.86007     0.86042     0.83951    
 0.81961     0.87695      1.2298      2.3873      5.4963      12.251      24.680      43.824      67.528      91.038    
  109.34      119.16      119.16      109.34      54.654      37.005      21.962      11.559      5.4958      2.4996    
  1.2919     0.88990     0.79747     0.77688     0.75309     0.73542     0.75314     0.77679     0.79760     0.88974    
  1.2922      2.4997      5.4956      11.560      21.959      37.008      54.652      71.134      82.676      86.799    
  82.677      71.137      27.746      17.373      9.7081      4.9146      2.3879      1.2919     0.89590     0.79266    
 0.75386     0.68422     0.61081     0.61093     0.68409     0.75403     0.79245     0.89619      1.2911      2.3891    
  4.9119      9.7122      17.369      27.745      39.192      49.015      54.666      54.665      49.013      39.187    
  12.223      7.2665      3.9412      2.0887      1.2294     0.88990     0.79266     0.75010     0.65709     0.52384    
 0.45836     0.52395     0.65686     0.75046     0.79214     0.89107      1.2279      2.0916      3.9381      7.2672    
  12.228      18.416      24.697      29.417      31.171      29.418      24.701      18.422      4.8739      2.8672    
  1.6993      1.1233     0.87736     0.79747     0.75386     0.65709     0.49350     0.35841     0.35822     0.49372    
 0.65687     0.75415     0.79666     0.87811      1.1216      1.7002      2.8695      4.8677      7.6834      10.892    
  13.762      15.475      15.475      13.761      10.887      7.6808      1.9596      1.3288      1.0040     0.86711    
 0.81923     0.77688     0.68422     0.52384     0.35841     0.28662     0.35835     0.52391     0.68409     0.77757    
 0.81884     0.86844      1.0036      1.3264      1.9632      2.9979      4.3627      5.7904      6.8823      7.2912    
  6.8821      5.7937      4.3678      2.9969      1.0546     0.91055     0.87473     0.87106     0.83987     0.75309    
 0.61081     0.45836     0.35822     0.35835     0.45828     0.61092     0.75241     0.84003     0.86993     0.87481    
 0.91268      1.0523      1.3493      1.8107      2.3675      2.8785      3.1873      3.1874      2.8777      2.3634    
  1.8082      1.3508     0.87684     0.90958     0.94521     0.93591     0.86007     0.73542     0.61093     0.52395    
 0.49372     0.52391     0.61092     0.73609     0.86015     0.93698     0.94524     0.90767     0.87826     0.90812    
  1.0165      1.1846      1.3656      1.5054      1.5577      1.5059      1.3673      1.1876      1.0180     0.90667    
 0.96673      1.0227      1.0333     0.97165     0.86042     0.75314     0.68409     0.65686     0.65687     0.68409    
 0.75241     0.86015     0.97060      1.0332      1.0246     0.96587     0.90281     0.87030     0.87617     0.90672    
 0.94195     0.96361     0.96332     0.94078     0.90564     0.87370     0.86948     0.90414      1.0815      1.0893    
  1.0331     0.93585     0.83951     0.77679     0.75403     0.75046     0.75415     0.77757     0.84003     0.93698    
  1.0332      1.0876      1.0818      1.0276     0.95165     0.88041     0.83067     0.80724     0.80213     0.80315    
 0.80288     0.80810     0.83145     0.88250     0.95213      1.0262      1.0818      1.0228     0.94546     0.87119    
 0.81961     0.79760     0.79245     0.79214     0.79666     0.81884     0.86993     0.94524      1.0246      1.0818    
  1.0951      1.0541     0.96983     0.87386     0.80192     0.76858     0.76159     0.76114     0.76812     0.80111    
 0.87342     0.96786      1.0539      1.0963     0.96644     0.90943     0.87447     0.86690     0.87695     0.88974    
 0.89619     0.89107     0.87811     0.86844     0.87481     0.90767     0.96587      1.0276      1.0541      1.0158    
 0.91961     0.80956     0.73080     0.69620     0.68863     0.69646     0.73119     0.81023     0.91984      1.0176    
  1.0540      1.0262     0.87713     0.91078      1.0043      1.1236      1.2298      1.2922      1.2911      1.2279    
  1.1216      1.0036     0.91268     0.87826     0.90281     0.95165     0.96983     0.91961     0.80983     0.68570    
 0.59199     0.54593     0.54604     0.59171     0.68546     0.80915     0.91968     0.96792     0.95206     0.90414    
  1.0543      1.3284      1.6990      2.0883      2.3873      2.4997      2.3891      2.0916      1.7002      1.3264    
  1.0523     0.90812     0.87030     0.88041     0.87386     0.80956     0.68570     0.53786     0.41863     0.37318    
 0.41859     0.53804     0.68589     0.81013     0.87360     0.88239     0.86955     0.90667      1.9599      2.8676    
  3.9416      4.9153      5.4963      5.4956      4.9119      3.9381      2.8695      1.9632      1.3493      1.0165    
 0.87617     0.83067     0.80192     0.73080     0.59199     0.41863     0.29511     0.29504     0.41872     0.59178    
 0.73074     0.80130     0.83125     0.87388      1.0179      1.3508      4.8735      7.2659      9.7076      11.558    
  12.251      11.560      9.7122      7.2672      4.8677      2.9979      1.8107      1.1846     0.90672     0.80724    
 0.76858     0.69620     0.54593     0.37318     0.29504     0.37318     0.54591     0.69633     0.76863     0.80779    
 0.90589      1.1873      1.8083      2.9969      12.223      17.374      21.962      24.681      24.680      21.959    
  17.369      12.228      7.6834      4.3627      2.3675      1.3656     0.94195     0.80213     0.76159     0.68862    
 0.54604     0.41859     0.41872     0.54591     0.68877     0.76135     0.80227     0.94127      1.3670      2.3638    
  4.3677      7.6808      27.746      37.003      43.822      46.326      43.824      37.008      27.745      18.416    
  10.892      5.7904      2.8785      1.5054     0.96361     0.80315     0.76114     0.69646     0.59171     0.53804    
 0.59178     0.69633     0.76135     0.80291     0.96402      1.5052      2.8781      5.7931      10.887      18.422    
  54.654      67.531      74.780      74.779      67.528      54.652      39.192      24.697      13.762      6.8823    
  3.1873      1.5577     0.96332     0.80288     0.76812     0.73119     0.68546     0.68589     0.73074     0.76863    
 0.80227     0.96402      1.5568      3.1883      6.8815      13.761      24.700      39.187      91.037      104.54    
  109.28      104.55      91.038      71.134      49.015      29.417      15.475      7.2912      3.1874      1.5059    
 0.94078     0.80810     0.80111     0.81023     0.80915     0.81013     0.80130     0.80779     0.94127      1.5052    
  3.1883      7.2899      15.476      29.417      49.014      71.137      129.28      139.63      139.62      129.28    
  109.34      82.676      54.666      31.171      15.475      6.8821      2.8777      1.3673     0.90564     0.83145    
 0.87342     0.91984     0.91968     0.87360     0.83125     0.90589      1.3670      2.8781      6.8815      15.476    
  31.170      54.667      82.678      109.34      160.40      165.41      160.40      144.89      119.16      86.799    
  54.665      29.418      13.761      5.7937      2.3634      1.1876     0.87370     0.88250     0.96786      1.0176    
 0.96792     0.88239     0.87388      1.1873      2.3638      5.7931      13.761      29.417      54.667      86.797    
  119.16      144.89      179.60      179.60      170.35      150.11      119.16      82.677      49.013      24.701    
  10.887      4.3678      1.8082      1.0180     0.86948     0.95213      1.0539      1.0540     0.95206     0.86955    
  1.0179      1.8083      4.3677      10.887      24.700      49.014      82.678      119.16      150.11      170.35    
  187.82      183.87      170.35      144.89      109.34      71.137      39.187      18.422      7.6808      2.9969    
  1.3508     0.90667     0.90414      1.0262      1.0963      1.0262     0.90414     0.90667      1.3508      2.9969    
  7.6808      18.422      39.187      71.137      109.34      144.89      170.35      183.87      175.08      160.39    
  134.44      99.924      64.115      34.957      16.390      6.8650      2.7281      1.2894     0.89979     0.90244    
  1.0088      1.0715      1.0089     0.90237     0.89991      1.2892      2.7284      6.8646      16.390      34.957    
  64.116      99.925      134.44      160.39      175.08      179.60      160.39      139.63      109.28      74.780    
  43.823      21.962      9.7081      3.9412      1.6993      1.0040     0.87473     0.94521      1.0333      1.0331    
 0.94546     0.87447      1.0043      1.6990      3.9416      9.7076      21.962      43.822      74.780      109.28    
  139.62      160.40      170.35      170.35      134.44      109.28      78.605      48.945      26.152      12.246    
  5.1980      2.1882      1.1567     0.87945     0.88244     0.95320     0.99365     0.95311     0.88263     0.87914    
  1.1572      2.1876      5.1988      12.245      26.154      48.943      78.606      109.28      134.44      150.11    
  155.30      150.11      99.924      74.780      48.945      27.711      13.757      6.1537      2.6358      1.3147    
 0.90677     0.83525     0.86434     0.89737     0.89779     0.86390     0.83574     0.90622      1.3153      2.6350    
  6.1548      13.755      27.713      48.945      74.778      99.927      119.16      129.33      129.33      119.16    
  64.115      43.823      26.152      13.757      6.5116      2.9042      1.4343     0.93665     0.81354     0.79701    
 0.79315     0.78616     0.79325     0.79679     0.81389     0.93614      1.4350      2.9031      6.5129      13.756    
  26.152      43.825      64.112      82.679      95.463      99.983      95.459      82.678      34.957      21.962    
  12.246      6.1537      2.9042      1.4785     0.95620     0.80871     0.76827     0.72014     0.66853     0.66823    
 0.72045     0.76792     0.80911     0.95576      1.4791      2.9036      6.1538      12.248      21.958      34.962    
  49.013      60.853      67.577      67.578      60.856      49.014      16.390      9.7081      5.1980      2.6358    
  1.4343     0.95620     0.80956     0.76307     0.69069     0.58248     0.52805     0.58249     0.69066     0.76313    
 0.80944     0.95633      1.4337      2.6371      5.1945      9.7131      16.386      24.697      33.023      39.195    
  41.470      39.193      33.020      24.700      6.8650      3.9412      2.1882      1.3147     0.93665     0.80871    
 0.76307     0.68505     0.54207     0.41826     0.41800     0.54234     0.68474     0.76345     0.80834     0.93766    
  1.3132      2.1914      3.9382      6.8640      10.893      15.456      19.543      21.975      21.977      19.545    
  15.458      10.887      2.7281      1.6993      1.1567     0.90677     0.81354     0.76827     0.69069     0.54207    
 0.37696     0.30290     0.37694     0.54214     0.69057     0.76829     0.81286     0.90748      1.1548      1.7001    
  2.7312      4.3627      6.4754      8.6462      10.292      10.909      10.290      8.6428      6.4773      4.3677    
  1.2894      1.0040     0.87945     0.83525     0.79701     0.72014     0.58248     0.41826     0.30290     0.30305    
 0.41808     0.58270     0.72010     0.79779     0.83477     0.88115      1.0036      1.2868      1.8107      2.5925    
  3.5250      4.3832      4.9025      4.9035      4.3867      3.5265      2.5890      1.8083     0.89979     0.87473    
 0.88244     0.86434     0.79315     0.66853     0.52805     0.41800     0.37694     0.41808     0.52794     0.66839    
 0.79245     0.86447     0.88102     0.87478     0.90213      1.0165      1.2434      1.5613      1.9014      2.1641    
  2.2620      2.1621      1.8990      1.5615      1.2462      1.0179     0.90244     0.94521     0.95320     0.89737    
 0.78616     0.66823     0.58249     0.54234     0.54214     0.58270     0.66839     0.78698     0.89742     0.95462    
 0.94522     0.90040     0.87030     0.88952     0.95976      1.0574      1.1482      1.2028      1.2039      1.1497    
  1.0586     0.95953     0.88709     0.86955      1.0088      1.0333     0.99365     0.89779     0.79325     0.72046    
 0.69066     0.68474     0.69057     0.72010     0.79245     0.89742     0.99230      1.0332      1.0108     0.95165    
 0.89293     0.85680     0.84574     0.85052     0.85984     0.86396     0.85888     0.84975     0.84479     0.85705    
 0.89507     0.95206      1.0715      1.0331     0.95311     0.86390     0.79679     0.76792     0.76313     0.76345    
 0.76829     0.79779     0.86447     0.95462      1.0332      1.0697      1.0541     0.99739     0.92139     0.85053    
 0.80295     0.78245     0.77821     0.77821     0.78306     0.80348     0.85127     0.92123     0.99536      1.0540    
  1.0089     0.94546     0.88263     0.83574     0.81389     0.80911     0.80944     0.80834     0.81286     0.83477    
 0.88102     0.94522      1.0108      1.0541      1.0520     0.99549     0.90256     0.81213     0.75656     0.73810    
 0.73623     0.73825     0.75602     0.81180     0.90190     0.99557      1.0540      1.0539     0.90237     0.87447    
 0.87914     0.90622     0.93614     0.95576     0.95633     0.93766     0.90748     0.88115     0.87478     0.90040    
 0.95165     0.99739     0.99549     0.92683     0.81611     0.71379     0.65389     0.63303     0.63301     0.65369    
 0.71431     0.81626     0.92744     0.99553     0.99536     0.95213     0.89991      1.0043      1.1572      1.3153    
  1.4350      1.4791      1.4337      1.3132      1.1548      1.0036     0.90213     0.87030     0.89293     0.92139    
 0.90256     0.81611     0.68828     0.56779     0.48962     0.46384     0.48966     0.56796     0.68779     0.81610    
 0.90193     0.92127     0.89507     0.86948      1.2892      1.6990      2.1876      2.6350      2.9031      2.9036    
  2.6371      2.1914      1.7001      1.2868      1.0165     0.88952     0.85680     0.85053     0.81213     0.71379    
 0.56779     0.41966     0.32639     0.32626     0.41974     0.56755     0.71433     0.81197     0.85120     0.85701    
 0.88709      1.0180      2.7284      3.9416      5.1988      6.1548      6.5129      6.1538      5.1945      3.9382    
  2.7312      1.8107      1.2434     0.95976     0.84574     0.80295     0.75656     0.65389     0.48962     0.32639    
 0.25685     0.32643     0.48956     0.65412     0.75599     0.80331     0.84490     0.95957      1.2462      1.8082    
  6.8646      9.7076      12.245      13.755      13.756      12.248      9.7131      6.8640      4.3627      2.5925    
  1.5613      1.0574     0.85052     0.78245     0.73810     0.63303     0.46384     0.32626     0.32643     0.46365    
 0.63323     0.73776     0.78313     0.84991      1.0585      1.5614      2.5890      4.3678      16.390      21.962    
  26.154      27.713      26.152      21.958      16.386      10.893      6.4754      3.5250      1.9014      1.1482    
 0.85984     0.77821     0.73623     0.63301     0.48966     0.41974     0.48956     0.63323     0.73589     0.77879    
 0.85876      1.1495      1.8992      3.5266      6.4773      10.887      34.957      43.822      48.943      48.945    
  43.825      34.962      24.697      15.456      8.6462      4.3832      2.1641      1.2028     0.86396     0.77821    
 0.73825     0.65369     0.56796     0.56755     0.65412     0.73776     0.77879     0.86321      1.2041      2.1623    
  4.3864      8.6427      15.458      24.701      64.116      74.780      78.606      74.778      64.112      49.013    
  33.023      19.543      10.292      4.9025      2.2620      1.2039     0.85888     0.78306     0.75602     0.71431    
 0.68779     0.71433     0.75599     0.78313     0.85876      1.2041      2.2614      4.9036      10.290      19.546    
  33.020      49.013      99.925      109.28      109.28      99.927      82.679      60.853      39.195      21.975    
  10.909      4.9035      2.1621      1.1497     0.84975     0.80348     0.81180     0.81626     0.81610     0.81197    
 0.80331     0.84991      1.1495      2.1623      4.9036      10.908      21.976      39.192      60.856      82.677    
  134.44      139.62      134.44      119.16      95.463      67.577      41.470      21.976      10.290      4.3867    
  1.8990      1.0586     0.84479     0.85127     0.90190     0.92744     0.90193     0.85120     0.84490      1.0585    
  1.8992      4.3864      10.290      21.976      41.468      67.579      95.459      119.16      160.39      160.40    
  150.11      129.33      99.983      67.578      39.193      19.545      8.6428      3.5265      1.5615     0.95953    
 0.85705     0.92123     0.99557     0.99553     0.92127     0.85701     0.95957      1.5614      3.5266      8.6427    
  19.546      39.192      67.579      99.980      129.33      150.11      175.08      170.35      155.30      129.33    
  95.459      60.856      33.020      15.458      6.4773      2.5890      1.2462     0.88709     0.89507     0.99536    
  1.0540     0.99536     0.89507     0.88709      1.2462      2.5890      6.4773      15.458      33.020      60.856    
  95.459      129.33      155.30      170.35      179.60      170.35      150.11      119.16      82.678      49.014    
  24.700      10.887      4.3677      1.8083      1.0179     0.86955     0.95206      1.0540      1.0539     0.95213    
 0.86948      1.0180      1.8082      4.3678      10.887      24.701      49.013      82.677      119.16      150.11    
  170.35      179.60      150.09      129.28      99.924      67.537      39.173      19.547      8.6533      3.5398    
  1.5721     0.96464     0.85753     0.91966     0.99441     0.99409     0.91998     0.85720     0.96499      1.5717    
  3.5402      8.6531      19.547      39.173      67.536      99.925      129.28      150.09      160.39      160.40    
  129.28      104.54      74.780      46.326      24.681      11.559      4.9146      2.0887      1.1233     0.86711    
 0.87106     0.93591     0.97165     0.93585     0.87119     0.86690      1.1236      2.0883      4.9153      11.558    
  24.681      46.326      74.779      104.55      129.28      144.89      150.11      144.89      99.924      74.780    
  48.945      27.711      13.757      6.1537      2.6358      1.3147     0.90677     0.83525     0.86434     0.89736    
 0.89779     0.86390     0.83574     0.90622      1.3153      2.6350      6.1548      13.755      27.713      48.945    
  74.778      99.927      119.16      129.33      129.33      119.16      67.537      46.326      27.711      14.579    
  6.8926      3.0583      1.4897     0.95620     0.82028     0.80377     0.80558     0.80228     0.80567     0.80356    