Og_FCC                                  
   1.00000000000000     
     2.974221    0.000000    0.000000
     1.487110    2.575751    0.000000
     1.487110    0.858584    2.428441
   Ne
     1
Direct
  0.000000  0.000000  0.000000
 
   28   28   28
 0.19139114195E+03 0.18781947214E+03 0.17507673967E+03 0.15008722387E+03 0.11418490078E+03
 0.74836169634E+02 0.41459044071E+02 0.19530917959E+02 0.81312716321E+01 0.31521137021E+01
 0.13905633639E+01 0.91468707383E+00 0.90664424175E+00 0.10360706315E+01 0.11092614615E+01
 0.10360706318E+01 0.90664424242E+00 0.91468707480E+00 0.13905633649E+01 0.31521137025E+01
 0.81312716313E+01 0.19530917957E+02 0.41459044067E+02 0.74836169629E+02 0.11418490077E+03
 0.15008722387E+03 0.17507673966E+03 0.18781947214E+03 0.18781947203E+03 0.17960341633E+03
 0.16039208662E+03 0.12928008048E+03 0.91035486110E+02 0.54653913747E+02 0.27745838627E+02
 0.12222944477E+02 0.48738499853E+01 0.19595528125E+01 0.10545941687E+01 0.87683717300E+00
 0.96672588599E+00 0.10814943667E+01 0.10817751871E+01 0.96644217291E+00 0.87712631304E+00
 0.10542968927E+01 0.19598621865E+01 0.48735081042E+01 0.12223265014E+02 0.27745534717E+02
 0.54654308205E+02 0.91036687571E+02 0.12927896275E+03 0.16039555190E+03 0.17959989472E+03
 0.18781660436E+03 0.17507673933E+03 0.16039208643E+03 0.13444215065E+03 0.99924255179E+02
 0.64115311579E+02 0.34957072716E+02 0.16390233770E+02 0.68650052839E+01 0.27281444159E+01
 0.12894072223E+01 0.89979022115E+00 0.90244229092E+00 0.10088443400E+01 0.10715232151E+01
 0.10088815070E+01 0.90236587877E+00 0.89990908159E+00 0.12892332791E+01 0.27284148524E+01
 0.68646012318E+01 0.16390238603E+02 0.34956924993E+02 0.64115838102E+02 0.99925224370E+02
 0.13444074919E+03 0.16039308633E+03 0.17507662781E+03 0.17959989444E+03 0.15008722340E+03
 0.12928008021E+03 0.99924255104E+02 0.67537477639E+02 0.39173285079E+02 0.19546747494E+02
 0.86533112765E+01 0.35398189466E+01 0.15721057197E+01 0.96463935886E+00 0.85753210575E+00
 0.91966042732E+00 0.99440966728E+00 0.99408960524E+00 0.91998433250E+00 0.85719991719E+00
 0.96498600036E+00 0.15717218094E+01 0.35402365855E+01 0.86530509402E+01 0.19547277712E+02
 0.39173336822E+02 0.67536475698E+02 0.99925148358E+02 0.12927910240E+03 0.15008556235E+03
 0.16039308599E+03 0.16039555137E+03 0.11418490039E+03 0.91035485934E+02 0.64115311557E+02
 0.39173285101E+02 0.20727403069E+02 0.97198178410E+01 0.41635523685E+01 0.18301829544E+01
 0.10395276718E+01 0.83810627924E+00 0.84121504305E+00 0.88619095041E+00 0.90777261659E+00
 0.88619952857E+00 0.84119580537E+00 0.83813863218E+00 0.10394814115E+01 0.18302849823E+01
 0.41631732923E+01 0.97202795974E+01 0.20726250208E+02 0.39175842156E+02 0.64114400379E+02
 0.91036285806E+02 0.11418810150E+03 0.12927910213E+03 0.13444074868E+03 0.12927896221E+03
 0.74836169465E+02 0.54653913735E+02 0.34957072780E+02 0.19546747556E+02 0.97198178701E+01
 0.43975780698E+01 0.19847926528E+01 0.10966868049E+01 0.83647740396E+00 0.79492881362E+00
 0.79370641014E+00 0.78721991569E+00 0.78709754075E+00 0.79384077968E+00 0.79476932840E+00
 0.83667949293E+00 0.10963663892E+01 0.19853884918E+01 0.43966140859E+01 0.97216503673E+01
 0.19544497745E+02 0.34958980197E+02 0.54653576681E+02 0.74832458630E+02 0.91036285645E+02
 0.99925148021E+02 0.99925223960E+02 0.91036687237E+02 0.41459044104E+02 0.27745838721E+02
 0.16390233869E+02 0.86533113486E+01 0.41635524081E+01 0.19847926671E+01 0.11180802704E+01
 0.84004809974E+00 0.77950131847E+00 0.74352782367E+00 0.68355664968E+00 0.64937109165E+00
 0.68342615810E+00 0.74380038938E+00 0.77906145294E+00 0.84075833206E+00 0.11169872491E+01
 0.19863820493E+01 0.41609285251E+01 0.86563294648E+01 0.16387787800E+02 0.27745163855E+02
 0.41464111374E+02 0.54653576622E+02 0.64114400234E+02 0.67536475503E+02 0.64115837936E+02
 0.54654308136E+02 0.19530918068E+02 0.12222944580E+02 0.68650053655E+01 0.35398190043E+01
 0.18301829893E+01 0.10966868206E+01 0.84004810381E+00 0.77771245237E+00 0.72812808741E+00
 0.62364400762E+00 0.52111076703E+00 0.52161735988E+00 0.62310797647E+00 0.72873613492E+00
 0.77691551848E+00 0.84105826961E+00 0.10953468807E+01 0.18321520959E+01 0.35381079404E+01
 0.68643600903E+01 0.12227983207E+02 0.19522804708E+02 0.27745163850E+02 0.34958980178E+02
 0.39175842132E+02 0.39173336820E+02 0.34956925038E+02 0.27745534807E+02 0.81312717175E+01
 0.48738500492E+01 0.27281444654E+01 0.15721057571E+01 0.10395276953E+01 0.83647741450E+00
 0.77950132260E+00 0.72812809119E+00 0.60547423197E+00 0.44562756570E+00 0.37017661976E+00
 0.44568011490E+00 0.60535551775E+00 0.72841769778E+00 0.77914888372E+00 0.83697063615E+00
 0.10387873064E+01 0.15720170656E+01 0.27310762858E+01 0.48677480767E+01 0.81359984062E+01
 0.12227983214E+02 0.16387787823E+02 0.19544497794E+02 0.20726250291E+02 0.19547277823E+02
 0.16390238724E+02 0.12223265124E+02 0.31521137424E+01 0.19595528402E+01 0.12894072464E+01
 0.96463937860E+00 0.83810629109E+00 0.79492882015E+00 0.74352783330E+00 0.62364402490E+00
 0.44562758297E+00 0.30781369245E+00 0.30771263888E+00 0.44575609226E+00 0.62336997221E+00
 0.74376231682E+00 0.79463189631E+00 0.83855252342E+00 0.96499084156E+00 0.12866942868E+01
 0.19633218437E+01 0.31516478444E+01 0.48677480807E+01 0.68643601108E+01 0.86563295167E+01
 0.97216504576E+01 0.97202797160E+01 0.86530510625E+01 0.68646013321E+01 0.48735081710E+01
 0.13905633735E+01 0.10545941744E+01 0.89979022756E+00 0.85753211072E+00 0.84121504679E+00
 0.79370642019E+00 0.68355667581E+00 0.52111081054E+00 0.37017666781E+00 0.30771267054E+00
 0.37011855042E+00 0.52136052864E+00 0.68340480444E+00 0.79391734644E+00 0.84085188261E+00
 0.85723959741E+00 0.90206550709E+00 0.10523502872E+01 0.13899187556E+01 0.19633218432E+01
 0.27310762951E+01 0.35381079739E+01 0.41609285923E+01 0.43966141822E+01 0.41631733977E+01
 0.35402366747E+01 0.27284149091E+01 0.19598622123E+01 0.91468706533E+00 0.87683716201E+00
 0.90244228061E+00 0.91966041983E+00 0.88619095225E+00 0.78721993773E+00 0.64937114183E+00
 0.52161743419E+00 0.44568019538E+00 0.44575615553E+00 0.52136055956E+00 0.64944395833E+00
 0.78713498572E+00 0.88645318136E+00 0.91995824192E+00 0.90034267960E+00 0.87830657919E+00
 0.91541923736E+00 0.10523502844E+01 0.12866942888E+01 0.15720170842E+01 0.18321521408E+01
 0.19863821205E+01 0.19853885766E+01 0.18302850604E+01 0.15717218633E+01 0.12892333032E+01
 0.10542968940E+01 0.90664421588E+00 0.96672585680E+00 0.10088443142E+01 0.99440965261E+00
 0.90777262323E+00 0.78709757857E+00 0.68342623008E+00 0.62310807293E+00 0.60535561736E+00
 0.62337005168E+00 0.68340485074E+00 0.78713500186E+00 0.90749961200E+00 0.99423966458E+00
 0.10107542558E+01 0.96591570610E+00 0.90582576662E+00 0.87830657561E+00 0.90206550602E+00
 0.96499085342E+00 0.10387873403E+01 0.10953469383E+01 0.11169873220E+01 0.10963664616E+01
 0.10394814674E+01 0.96498603032E+00 0.89990908551E+00 0.87712629743E+00 0.10360705883E+01
 0.10814943231E+01 0.10715231815E+01 0.99408959207E+00 0.88619954491E+00 0.79384083091E+00
 0.74380047274E+00 0.72873623656E+00 0.72841779592E+00 0.74376239132E+00 0.79391738865E+00
 0.88645319683E+00 0.99423966669E+00 0.10696240224E+01 0.10818906672E+01 0.10368256578E+01
 0.96591570302E+00 0.90034267757E+00 0.85723960645E+00 0.83855255396E+00 0.83697069192E+00
 0.84105834392E+00 0.84075841013E+00 0.83667955842E+00 0.83813867352E+00 0.85719993017E+00
 0.90236586561E+00 0.96644214010E+00 0.11092614101E+01 0.10817751415E+01 0.10088814782E+01
 0.91998432929E+00 0.84119583327E+00 0.79476938777E+00 0.77906153622E+00 0.77691560981E+00
 0.77914896370E+00 0.79463195062E+00 0.84085190855E+00 0.91995824787E+00 0.10107542541E+01
 0.10818906659E+01 0.11084612169E+01 0.10818906660E+01 0.10107542541E+01 0.91995824795E+00
 0.84085190864E+00 0.79463195079E+00 0.77914896404E+00 0.77691561039E+00 0.77906153713E+00
 0.79476938900E+00 0.84119583473E+00 0.91998433077E+00 0.10088814794E+01 0.10817751422E+01
 0.10360705875E+01 0.96644213877E+00 0.90236586399E+00 0.85719992851E+00 0.83813867202E+00
 0.83667955722E+00 0.84075840926E+00 0.84105834334E+00 0.83697069154E+00 0.83855255369E+00
 0.85723960624E+00 0.90034267738E+00 0.96591570285E+00 0.10368256576E+01 0.10818906671E+01
 0.10696240223E+01 0.99423966657E+00 0.88645319671E+00 0.79391738859E+00 0.74376239142E+00
 0.72841779625E+00 0.72873623718E+00 0.74380047367E+00 0.79384083208E+00 0.88619954612E+00
 0.99408959307E+00 0.10715231820E+01 0.10814943229E+01 0.90664421464E+00 0.87712629586E+00
 0.89990908382E+00 0.96498602870E+00 0.10394814659E+01 0.10963664605E+01 0.11169873211E+01
 0.10953469377E+01 0.10387873399E+01 0.96499085307E+00 0.90206550576E+00 0.87830657540E+00
 0.90582576644E+00 0.96591570590E+00 0.10107542555E+01 0.99423966425E+00 0.90749961163E+00
 0.78713500154E+00 0.68340485057E+00 0.62337005174E+00 0.60535561771E+00 0.62310807357E+00
 0.68342623096E+00 0.78709757954E+00 0.90777262404E+00 0.99440965303E+00 0.10088443141E+01
 0.96672585606E+00 0.91468706400E+00 0.10542968925E+01 0.12892333016E+01 0.15717218617E+01
 0.18302850590E+01 0.19853885754E+01 0.19863821196E+01 0.18321521400E+01 0.15720170837E+01
 0.12866942884E+01 0.10523502842E+01 0.91541923722E+00 0.87830657900E+00 0.90034267929E+00
 0.91995824145E+00 0.88645318078E+00 0.78713498514E+00 0.64944395788E+00 0.52136055934E+00
 0.44575615560E+00 0.44568019575E+00 0.52161743482E+00 0.64937114260E+00 0.78721993846E+00
 0.88619095270E+00 0.91966041983E+00 0.90244228011E+00 0.87683716105E+00 0.13905633720E+01
 0.19598622106E+01 0.27284149073E+01 0.35402366730E+01 0.41631733962E+01 0.43966141810E+01
 0.41609285914E+01 0.35381079732E+01 0.27310762948E+01 0.19633218431E+01 0.13899187555E+01
 0.10523502871E+01 0.90206550679E+00 0.85723959688E+00 0.84085188189E+00 0.79391734567E+00
 0.68340480377E+00 0.52136052819E+00 0.37011855025E+00 0.30771267068E+00 0.37017666824E+00
 0.52111081116E+00 0.68355667648E+00 0.79370642073E+00 0.84121504703E+00 0.85753211056E+00
 0.89979022694E+00 0.10545941733E+01 0.31521137403E+01 0.48735081687E+01 0.68646013298E+01
 0.86530510605E+01 0.97202797144E+01 0.97216504565E+01 0.86563295161E+01 0.68643601106E+01
 0.48677480808E+01 0.31516478445E+01 0.19633218437E+01 0.12866942866E+01 0.96499084098E+00
 0.83855252258E+00 0.79463189537E+00 0.74376231598E+00 0.62336997159E+00 0.44575609194E+00
 0.30771263887E+00 0.30781369272E+00 0.44562758347E+00 0.62364402553E+00 0.74352783393E+00
 0.79492882063E+00 0.83810629124E+00 0.96463937826E+00 0.12894072454E+01 0.19595528387E+01
 0.81312717141E+01 0.12223265120E+02 0.16390238721E+02 0.19547277821E+02 0.20726250289E+02
 0.19544497794E+02 0.16387787823E+02 0.12227983215E+02 0.81359984069E+01 0.48677480771E+01
 0.27310762857E+01 0.15720170650E+01 0.10387873054E+01 0.83697063499E+00 0.77914888266E+00
 0.72841769702E+00 0.60535551734E+00 0.44568011483E+00 0.37017661997E+00 0.44562756613E+00
 0.60547423255E+00 0.72812809185E+00 0.77950132323E+00 0.83647741490E+00 0.10395276952E+01
 0.15721057561E+01 0.27281444634E+01 0.48738500463E+01 0.19530918063E+02 0.27745534802E+02
 0.34956925034E+02 0.39173336818E+02 0.39175842131E+02 0.34958980179E+02 0.27745163852E+02
 0.19522804710E+02 0.12227983208E+02 0.68643600908E+01 0.35381079400E+01 0.18321520948E+01
 0.10953468792E+01 0.84105826819E+00 0.77691551744E+00 0.72873613440E+00 0.62310797640E+00
 0.52161736013E+00 0.52111076747E+00 0.62364400818E+00 0.72812808806E+00 0.77771245307E+00
 0.84004810438E+00 0.10966868207E+01 0.18301829884E+01 0.35398190020E+01 0.68650053617E+01
 0.12222944575E+02 0.41459044097E+02 0.54654308130E+02 0.64115837931E+02 0.67536475500E+02
 0.64114400234E+02 0.54653576623E+02 0.41464111377E+02 0.27745163858E+02 0.16387787801E+02
 0.86563294652E+01 0.41609285243E+01 0.19863820477E+01 0.11169872472E+01 0.84075833055E+00
 0.77906145208E+00 0.74380038920E+00 0.68342615840E+00 0.64937109220E+00 0.68355665031E+00
 0.74352782432E+00 0.77950131916E+00 0.84004810041E+00 0.11180802707E+01 0.19847926664E+01
 0.41635524058E+01 0.86533113443E+01 0.16390233863E+02 0.27745838714E+02 0.74836169456E+02
 0.91036687229E+02 0.99925223954E+02 0.99925148019E+02 0.91036285645E+02 0.74832458632E+02
 0.54653576684E+02 0.34958980200E+02 0.19544497746E+02 0.97216503674E+01 0.43966140845E+01
 0.19853884897E+01 0.10963663871E+01 0.83667949152E+00 0.79476932786E+00 0.79384077989E+00
 0.78709754139E+00 0.78721991645E+00 0.79370641086E+00 0.79492881431E+00 0.83647740465E+00
 0.10966868053E+01 0.19847926524E+01 0.43975780679E+01 0.97198178660E+01 0.19546747550E+02
 0.34957072772E+02 0.54653913725E+02 0.11418490038E+03 0.12927896220E+03 0.13444074868E+03
 0.12927910212E+03 0.11418810150E+03 0.91036285810E+02 0.64114400383E+02 0.39175842159E+02
 0.20726250210E+02 0.97202795971E+01 0.41631732906E+01 0.18302849801E+01 0.10394814095E+01
 0.83813863106E+00 0.84119580519E+00 0.88619952910E+00 0.90777261742E+00 0.88619095125E+00
 0.84121504379E+00 0.83810627992E+00 0.10395276723E+01 0.18301829543E+01 0.41635523671E+01
 0.97198178377E+01 0.20727403063E+02 0.39173285093E+02 0.64115311548E+02 0.91035485923E+02
 0.15008722339E+03 0.16039555136E+03 0.16039308599E+03 0.15008556235E+03 0.12927910241E+03
 0.99925148362E+02 0.67536475703E+02 0.39173336825E+02 0.19547277714E+02 0.86530509396E+01
 0.35402365838E+01 0.15717218073E+01 0.96498599873E+00 0.85719991644E+00 0.91998433263E+00
 0.99408960592E+00 0.99440966814E+00 0.91966042813E+00 0.85753210648E+00 0.96463935946E+00
 0.15721057199E+01 0.35398189458E+01 0.86533112741E+01 0.19546747490E+02 0.39173285072E+02
 0.67537477630E+02 0.99924255094E+02 0.12928008020E+03 0.17507673932E+03 0.17959989443E+03
 0.17507662781E+03 0.16039308633E+03 0.13444074919E+03 0.99925224375E+02 0.64115838106E+02
 0.34956924996E+02 0.16390238604E+02 0.68646012312E+01 0.27284148508E+01 0.12892332774E+01
 0.89990908037E+00 0.90236587834E+00 0.10088815073E+01 0.10715232157E+01 0.10088443408E+01
 0.90244229168E+00 0.89979022187E+00 0.12894072228E+01 0.27281444157E+01 0.68650052824E+01
 0.16390233767E+02 0.34957072711E+02 0.64115311572E+02 0.99924255170E+02 0.13444215064E+03
 0.16039208642E+03 0.18781947203E+03 0.18781660436E+03 0.17959989472E+03 0.16039555190E+03
 0.12927896276E+03 0.91036687577E+02 0.54654308209E+02 0.27745534719E+02 0.12223265015E+02
 0.48735081037E+01 0.19598621853E+01 0.10542968914E+01 0.87712631218E+00 0.96644217264E+00
 0.10817751873E+01 0.10814943672E+01 0.96672588665E+00 0.87683717379E+00 0.10545941695E+01
 0.19595528129E+01 0.48738499847E+01 0.12222944475E+02 0.27745838623E+02 0.54653913741E+02
 0.91035486103E+02 0.12928008047E+03 0.16039208661E+03 0.17960341632E+03 0.18781947178E+03
 0.17960341603E+03 0.16039208628E+03 0.12928008014E+03 0.91035485833E+02 0.54653913564E+02
 0.27745838535E+02 0.12222944444E+02 0.48738499798E+01 0.19595528142E+01 0.10545941680E+01
 0.87683716450E+00 0.96672586755E+00 0.10814943410E+01 0.10817751613E+01 0.96644215435E+00
 0.87712630451E+00 0.10542968921E+01 0.19598621888E+01 0.48735080994E+01 0.12223264981E+02
 0.27745534624E+02 0.54654308021E+02 0.91036687292E+02 0.12927896242E+03 0.16039555156E+03
 0.17959989443E+03 0.18781660411E+03 0.17960341561E+03 0.16541275116E+03 0.13962715725E+03
 0.10454334472E+03 0.67531080434E+02 0.37004960295E+02 0.17373241515E+02 0.72664537975E+01
 0.28671873000E+01 0.13287586450E+01 0.91054708016E+00 0.90957706644E+00 0.10227483386E+01
 0.10893138628E+01 0.10228218235E+01 0.90942581061E+00 0.91078407032E+00 0.13284161832E+01
 0.28676390146E+01 0.72659468680E+01 0.17374438245E+02 0.37003408721E+02 0.67531226267E+02
 0.10454141796E+03 0.13962575816E+03 0.16541420303E+03 0.17960267768E+03 0.18387291652E+03
 0.16039208563E+03 0.13962715702E+03 0.10927914488E+03 0.74780099792E+02 0.43822747009E+02
 0.21961934578E+02 0.97081337738E+01 0.39412469131E+01 0.16993015827E+01 0.10039615965E+01
 0.87473160423E+00 0.94521274807E+00 0.10333275192E+01 0.10330922924E+01 0.94545623812E+00
 0.87446934322E+00 0.10042570125E+01 0.16989564553E+01 0.39416392631E+01 0.97075651233E+01
 0.21962460708E+02 0.43822372562E+02 0.74780334069E+02 0.10928087716E+03 0.13962481793E+03
 0.16039593755E+03 0.17035010658E+03 0.17034696652E+03 0.12928007959E+03 0.10454334453E+03
 0.74780099787E+02 0.46326180530E+02 0.24680772544E+02 0.11558764285E+02 0.49146475915E+01
 0.20886598444E+01 0.11233162872E+01 0.86710642763E+00 0.87106333928E+00 0.93591480021E+00
 0.97164938245E+00 0.93585245875E+00 0.87119131247E+00 0.86690271681E+00 0.11235984578E+01
 0.20883014298E+01 0.49153030683E+01 0.11557899392E+02 0.24681349367E+02 0.46325765369E+02
 0.74778830519E+02 0.10454581544E+03 0.12927829826E+03 0.14488616104E+03 0.15010846422E+03
 0.14488787594E+03 0.91035485596E+02 0.67531080443E+02 0.43822747100E+02 0.24680772601E+02
 0.12251775227E+02 0.54958065370E+01 0.23878543924E+01 0.12293986813E+01 0.87735761935E+00
 0.81923387744E+00 0.83986922895E+00 0.86006965314E+00 0.86041959472E+00 0.83951004526E+00
 0.81961324286E+00 0.87695334750E+00 0.12298221915E+01 0.23872927021E+01 0.54963302007E+01
 0.12251319983E+02 0.24679847084E+02 0.43824084885E+02 0.67528223551E+02 0.91038084178E+02
 0.10934288235E+03 0.11916123469E+03 0.11916006823E+03 0.10934162678E+03 0.54653913635E+02
 0.37004960458E+02 0.21961934727E+02 0.11558764372E+02 0.54958065690E+01 0.24996466808E+01
 0.12919146315E+01 0.88990339330E+00 0.79747334012E+00 0.77687560341E+00 0.75309433584E+00
 0.73542158378E+00 0.75313771330E+00 0.77678779564E+00 0.79759961179E+00 0.88974215345E+00
 0.12921663919E+01 0.24996592509E+01 0.54955910962E+01 0.11560011281E+02 0.21959481858E+02
 0.37008106331E+02 0.54652372752E+02 0.71133945861E+02 0.82675845426E+02 0.86799061389E+02
 0.82677324469E+02 0.71136945919E+02 0.27745838737E+02 0.17373241701E+02 0.97081339068E+01
 0.49146476702E+01 0.23878544307E+01 0.12919146443E+01 0.89590499392E+00 0.79266425367E+00
 0.75386250519E+00 0.68422452379E+00 0.61080527314E+00 0.61092511002E+00 0.68409338616E+00
 0.75402888073E+00 0.79244781532E+00 0.89618632496E+00 0.12911319454E+01 0.23890924797E+01
 0.49118668895E+01 0.97122046666E+01 0.17369430354E+02 0.27745249153E+02 0.39192466332E+02
 0.49015156444E+02 0.54665825081E+02 0.54665477423E+02 0.49013094508E+02 0.39186746702E+02
 0.12222944614E+02 0.72664539232E+01 0.39412469997E+01 0.20886599004E+01 0.12293987131E+01
 0.88990340795E+00 0.79266425921E+00 0.75010383162E+00 0.65709182594E+00 0.52383883885E+00
 0.45835736780E+00 0.52394614532E+00 0.65686112353E+00 0.75046286479E+00 0.79213562643E+00
 0.89107327663E+00 0.12278673532E+01 0.20916369238E+01 0.39381169763E+01 0.72672062544E+01
 0.12228277463E+02 0.18415735541E+02 0.24697185333E+02 0.29416568932E+02 0.31170666172E+02
 0.29417657678E+02 0.24700753484E+02 0.18421921944E+02 0.48738500670E+01 0.28671873617E+01
 0.16993016298E+01 0.11233163226E+01 0.87735764285E+00 0.79747335548E+00 0.75386251868E+00
 0.65709183779E+00 0.49350158002E+00 0.35840690772E+00 0.35821666676E+00 0.49371658623E+00
 0.65687013424E+00 0.75414587405E+00 0.79666442796E+00 0.87810578641E+00 0.11215715272E+01
 0.17002147023E+01 0.28695033825E+01 0.48676547538E+01 0.76834207822E+01 0.10892291918E+02
 0.13762062310E+02 0.15475112418E+02 0.15475065471E+02 0.13760645283E+02 0.10886651431E+02
 0.76808220513E+01 0.19595528417E+01 0.13287586671E+01 0.10039616194E+01 0.86710644947E+00
 0.81923389770E+00 0.77687562705E+00 0.68422455566E+00 0.52383887509E+00 0.35840693406E+00
 0.28661529263E+00 0.35835105266E+00 0.52390579507E+00 0.68409275487E+00 0.77757023853E+00
 0.81883529898E+00 0.86844255416E+00 0.10036329906E+01 0.13264075882E+01 0.19632396083E+01
 0.29979311567E+01 0.43627160461E+01 0.57904227317E+01 0.68822949302E+01 0.72911789411E+01
 0.68821498682E+01 0.57936726948E+01 0.43678440599E+01 0.29969455755E+01 0.10545941640E+01
 0.91054708056E+00 0.87473161207E+00 0.87106335459E+00 0.83986925469E+00 0.75309437752E+00
 0.61080533245E+00 0.45835743624E+00 0.35821672663E+00 0.35835108620E+00 0.45827684212E+00
 0.61091954634E+00 0.75240631412E+00 0.84002897168E+00 0.86992925000E+00 0.87480696829E+00
 0.91268087670E+00 0.10522907339E+01 0.13493100752E+01 0.18107141044E+01 0.23674687445E+01
 0.28785317860E+01 0.31872631349E+01 0.31874134044E+01 0.28776722288E+01 0.23633773165E+01
 0.18081791634E+01 0.13507555137E+01 0.87683714085E+00 0.90957705089E+00 0.94521274635E+00
 0.93591481614E+00 0.86006969097E+00 0.73542164680E+00 0.61092519562E+00 0.52394624124E+00
 0.49371667296E+00 0.52390585488E+00 0.61091957278E+00 0.73609438368E+00 0.86014565466E+00
 0.93697662407E+00 0.94523547817E+00 0.90767209121E+00 0.87825622378E+00 0.90812417083E+00
 0.10165297360E+01 0.11846180691E+01 0.13656263860E+01 0.15053867762E+01 0.15577431974E+01
 0.15058582659E+01 0.13673049134E+01 0.11875990801E+01 0.10179943803E+01 0.90666609198E+00
 0.96672582748E+00 0.10227483123E+01 0.10333275147E+01 0.97164940418E+00 0.86041964488E+00
 0.75313779154E+00 0.68409348643E+00 0.65686123154E+00 0.65687023055E+00 0.68409282368E+00
 0.75240635118E+00 0.86014566736E+00 0.97060254718E+00 0.10332334963E+01 0.10245528853E+01
 0.96586972770E+00 0.90280585255E+00 0.87029891269E+00 0.87617045996E+00 0.90671899924E+00
 0.94194630692E+00 0.96360617571E+00 0.96331839103E+00 0.94078114907E+00 0.90563877024E+00
 0.87369896487E+00 0.86947659618E+00 0.90414143181E+00 0.10814942931E+01 0.10893138353E+01
 0.10330922923E+01 0.93585248797E+00 0.83951010297E+00 0.77678787874E+00 0.75402898096E+00
 0.75046296724E+00 0.75414596130E+00 0.77757029889E+00 0.84002900470E+00 0.93697663826E+00
 0.10332335013E+01 0.10876081469E+01 0.10818465719E+01 0.10275729226E+01 0.95164933771E+00
 0.88040899835E+00 0.83066951309E+00 0.80724374885E+00 0.80212635746E+00 0.80314880839E+00
 0.80287527110E+00 0.80810440839E+00 0.83145084666E+00 0.88250304822E+00 0.95212872382E+00
 0.10262479877E+01 0.10817751189E+01 0.10228218046E+01 0.94545624667E+00 0.87119134824E+00
 0.81961330357E+00 0.79759969225E+00 0.79244790527E+00 0.79213571125E+00 0.79666449419E+00
 0.81883534101E+00 0.86992927213E+00 0.94523548987E+00 0.10245528937E+01 0.10818465778E+01
 0.10950612468E+01 0.10540848489E+01 0.96983415598E+00 0.87386291392E+00 0.80191524289E+00
 0.76857688950E+00 0.76158596895E+00 0.76113864149E+00 0.76812187662E+00 0.80110590476E+00
 0.87342371036E+00 0.96786413434E+00 0.10539364154E+01 0.10963208382E+01 0.96644212635E+00
 0.90942580399E+00 0.87446936104E+00 0.86690275937E+00 0.87695341152E+00 0.88974223047E+00
 0.89618640187E+00 0.89107334005E+00 0.87810582879E+00 0.86844257710E+00 0.87480698042E+00
 0.90767210186E+00 0.96586974083E+00 0.10275729352E+01 0.10540848555E+01 0.10157640308E+01
 0.91961357802E+00 0.80956015971E+00 0.73080441383E+00 0.69620420856E+00 0.68862500494E+00
 0.69646195669E+00 0.73119384819E+00 0.81022883864E+00 0.91983937965E+00 0.10176040365E+01
 0.10539997113E+01 0.10262480001E+01 0.87712629075E+00 0.91078407483E+00 0.10042570412E+01
 0.11235985122E+01 0.12298222650E+01 0.12921664697E+01 0.12911320111E+01 0.12278673968E+01
 0.11215715489E+01 0.10036329991E+01 0.91268088317E+00 0.87825623539E+00 0.90280586908E+00
 0.95164935251E+00 0.96983416170E+00 0.91961357483E+00 0.80982672559E+00 0.68569556657E+00
 0.59199191094E+00 0.54592770096E+00 0.54603887864E+00 0.59171368004E+00 0.68546285733E+00
 0.80915291006E+00 0.91967826947E+00 0.96792018426E+00 0.95206180222E+00 0.90414144803E+00
 0.10542968896E+01 0.13284162013E+01 0.16989565036E+01 0.20883015070E+01 0.23872927925E+01
 0.24996593317E+01 0.23890925335E+01 0.20916369478E+01 0.17002147065E+01 0.13264075871E+01
 0.10522907376E+01 0.90812418197E+00 0.87029892609E+00 0.88040900421E+00 0.87386290423E+00
 0.80956013624E+00 0.68569554428E+00 0.53785839934E+00 0.41862893145E+00 0.37318101210E+00
 0.41858902799E+00 0.53803867957E+00 0.68589467830E+00 0.81013424492E+00 0.87359674837E+00
 0.88238707760E+00 0.86955203502E+00 0.90666610280E+00 0.19598622031E+01 0.28676390588E+01
 0.39416393446E+01 0.49153031753E+01 0.54963303050E+01 0.54955911695E+01 0.49118669206E+01
 0.39381169749E+01 0.28695033685E+01 0.19632395981E+01 0.13493100743E+01 0.10165297403E+01
 0.87617045977E+00 0.83066949695E+00 0.80191520374E+00 0.73080435628E+00 0.59199185321E+00
 0.41862889639E+00 0.29510683917E+00 0.29504131021E+00 0.41872178337E+00 0.59177557391E+00
 0.73073763630E+00 0.80130302491E+00 0.83125078865E+00 0.87388496716E+00 0.10179035070E+01
 0.13507555123E+01 0.48735081455E+01 0.72659469529E+01 0.97075652430E+01 0.11557899520E+02
 0.12251320080E+02 0.11560011324E+02 0.97122046575E+01 0.72672062179E+01 0.48676547164E+01
 0.29979311318E+01 0.18107140907E+01 0.11846180566E+01 0.90671897571E+00 0.80724370325E+00
 0.76857681718E+00 0.69620411751E+00 0.54592761192E+00 0.37318094813E+00 0.29504128208E+00
 0.37318078258E+00 0.54590513757E+00 0.69633053151E+00 0.76862979236E+00 0.80778560686E+00
 0.90588769197E+00 0.11873269160E+01 0.18082970729E+01 0.29969455491E+01 0.12223265070E+02
 0.17374438369E+02 0.21962460847E+02 0.24681349484E+02 0.24679847145E+02 0.21959481853E+02
 0.17369430297E+02 0.12228277387E+02 0.76834207142E+01 0.43627159956E+01 0.23674687060E+01
 0.13656263477E+01 0.94194625686E+00 0.80212628631E+00 0.76158587474E+00 0.68862489800E+00
 0.54603877980E+00 0.41858895732E+00 0.41872174764E+00 0.54590512757E+00 0.68876986350E+00
 0.76134628581E+00 0.80227049491E+00 0.94126883381E+00 0.13669526473E+01 0.23637961124E+01
 0.43676742006E+01 0.76808219796E+01 0.27745534739E+02 0.37003408851E+02 0.43822372687E+02
 0.46325765461E+02 0.43824084923E+02 0.37008106304E+02 0.27745249072E+02 0.18415735433E+02
 0.10892291813E+02 0.57904226444E+01 0.28785317141E+01 0.15053867108E+01 0.96360610626E+00
 0.80314872686E+00 0.76113854736E+00 0.69646186028E+00 0.59171359841E+00 0.53803862614E+00
 0.59177554958E+00 0.69633052561E+00 0.76134628559E+00 0.80291138090E+00 0.96401517773E+00
 0.15051998788E+01 0.28781402894E+01 0.57931356571E+01 0.10886808513E+02 0.18421921829E+02
 0.54654308125E+02 0.67531226385E+02 0.74780334206E+02 0.74778830662E+02 0.67528223666E+02
 0.54652372792E+02 0.39192466279E+02 0.24697185210E+02 0.13762062167E+02 0.68822948027E+01
 0.31872630329E+01 0.15577431156E+01 0.96331831829E+00 0.80287519932E+00 0.76812180521E+00
 0.73119378444E+00 0.68546281093E+00 0.68589465385E+00 0.73073762926E+00 0.76862979247E+00
 0.80227049381E+00 0.96401517438E+00 0.15568242902E+01 0.31883152181E+01 0.68815234429E+01
 0.13761260445E+02 0.24700245818E+02 0.39186746638E+02 0.91036687392E+02 0.10454141814E+03
 0.10928087744E+03 0.10454581581E+03 0.91038084521E+02 0.71133946066E+02 0.49015156459E+02
 0.29416568801E+02 0.15475112239E+02 0.72911787853E+01 0.31874132907E+01 0.15058581875E+01
 0.94078109162E+00 0.80810436329E+00 0.80110587028E+00 0.81022881659E+00 0.80915290100E+00
 0.81013424563E+00 0.80130302862E+00 0.80778560663E+00 0.94126882625E+00 0.15051998659E+01
 0.31883152069E+01 0.72898682729E+01 0.15476178109E+02 0.29416532517E+02 0.49013975400E+02
 0.71136946111E+02 0.12927896259E+03 0.13962575854E+03 0.13962481854E+03 0.12927829900E+03
 0.10934288301E+03 0.82675845807E+02 0.54665825146E+02 0.31170666025E+02 0.15475065270E+02
 0.68821497103E+01 0.28776721296E+01 0.13673048579E+01 0.90563874130E+00 0.83145083645E+00
 0.87342371527E+00 0.91983939474E+00 0.91967828741E+00 0.87359676226E+00 0.83125079387E+00
 0.90588768641E+00 0.13669526304E+01 0.28781402631E+01 0.68815234136E+01 0.15476178089E+02
 0.31169963301E+02 0.54666818204E+02 0.82677918781E+02 0.10934162742E+03 0.16039555189E+03
 0.16541420370E+03 0.16039593854E+03 0.14488616212E+03 0.11916123556E+03 0.86799061836E+02
 0.54665477465E+02 0.29417657501E+02 0.13760645085E+02 0.57936725639E+01 0.23633772514E+01
 0.11875990571E+01 0.87369896774E+00 0.88250307133E+00 0.96786417108E+00 0.10176040759E+01
 0.96792021497E+00 0.88238709450E+00 0.87388497029E+00 0.11873269061E+01 0.23637960871E+01
 0.57931356152E+01 0.13761260393E+02 0.29416532473E+02 0.54666818183E+02 0.86797286119E+02
 0.11916090931E+03 0.14488787702E+03 0.17959989488E+03 0.17960267855E+03 0.17035010777E+03
 0.15010846541E+03 0.11916006907E+03 0.82677324812E+02 0.49013094458E+02 0.24700753281E+02
 0.10886651261E+02 0.43678439720E+01 0.18081791355E+01 0.10179943861E+01 0.86947662459E+00
 0.95212877050E+00 0.10539364701E+01 0.10539997594E+01 0.95206183421E+00 0.86955205051E+00
 0.10179035093E+01 0.18082970603E+01 0.43676741654E+01 0.10886808451E+02 0.24700245742E+02
 0.49013975340E+02 0.82677918747E+02 0.11916090928E+03 0.15010972746E+03 0.17034696770E+03
 0.18781660446E+03 0.18387291730E+03 0.17034696757E+03 0.14488787691E+03 0.10934162736E+03
 0.71136946048E+02 0.39186746550E+02 0.18421921743E+02 0.76808219244E+01 0.29969455265E+01
 0.13507555105E+01 0.90666611368E+00 0.90414147326E+00 0.10262480430E+01 0.10963208942E+01
 0.10262480432E+01 0.90414147381E+00 0.90666611473E+00 0.13507555119E+01 0.29969455276E+01
 0.76808219243E+01 0.18421921741E+02 0.39186746546E+02 0.71136946041E+02 0.10934162735E+03
 0.14488787690E+03 0.17034696756E+03 0.18387291730E+03 0.17507673801E+03 0.16039208501E+03
 0.13444214922E+03 0.99924253945E+02 0.64115310698E+02 0.34957072212E+02 0.16390233549E+02
 0.68650052143E+01 0.27281444002E+01 0.12894072103E+01 0.89979018809E+00 0.90244222219E+00
 0.10088442357E+01 0.10715230954E+01 0.10088814024E+01 0.90236580973E+00 0.89990904846E+00
 0.12892332675E+01 0.27284148374E+01 0.68646011629E+01 0.16390238382E+02 0.34956924488E+02
 0.64115837218E+02 0.99925223133E+02 0.13444074775E+03 0.16039308490E+03 0.17507662650E+03
 0.17959989319E+03 0.16039208464E+03 0.13962715599E+03 0.10927914393E+03 0.74780099048E+02
 0.43822746532E+02 0.21961934332E+02 0.97081336724E+01 0.39412468756E+01 0.16993015613E+01
 0.10039615678E+01 0.87473155379E+00 0.94521266922E+00 0.10333274195E+01 0.10330921927E+01
 0.94545615904E+00 0.87446929255E+00 0.10042569836E+01 0.16989564340E+01 0.39416392257E+01
 0.97075650216E+01 0.21962460461E+02 0.43822372083E+02 0.74780333324E+02 0.10928087621E+03
 0.13962481690E+03 0.16039593656E+03 0.17035010564E+03 0.17034696558E+03 0.13444214888E+03
 0.10927914390E+03 0.78605336994E+02 0.48945055571E+02 0.26152052283E+02 0.12246387563E+02