   1   1   0   0
  0.1860393E+02  0.2974221E-09  0.2974221E-09  0.2974221E-09  0.1000000E-15
  1.000000000000000E-004
  CAR 
 Og_FCC                                  
     32.61247297    -48.89511978  301     -9.63562928      1.00000000
    -48.895  0.0000E+00  0.0000E+00
    -48.623  0.0000E+00  0.0000E+00
    -48.352  0.0000E+00  0.0000E+00
    -48.080  0.0000E+00  0.0000E+00
    -47.808  0.0000E+00  0.0000E+00
    -47.537  0.0000E+00  0.0000E+00
    -47.265  0.0000E+00  0.0000E+00
    -46.993  0.0000E+00  0.0000E+00
    -46.722  0.0000E+00  0.0000E+00
    -46.450  0.0000E+00  0.0000E+00
    -46.178  0.0000E+00  0.0000E+00
    -45.907  0.0000E+00  0.0000E+00
    -45.635  0.0000E+00  0.0000E+00
    -45.363  0.0000E+00  0.0000E+00
    -45.091  0.8520E+00  0.7940E+00
    -44.820  0.0000E+00  0.1969E+01
    -44.548  0.0000E+00  0.2000E+01
    -44.276  0.0000E+00  0.2000E+01
    -44.005  0.0000E+00  0.2000E+01
    -43.733  0.0000E+00  0.2000E+01
    -43.461  0.0000E+00  0.2000E+01
    -43.190  0.0000E+00  0.2000E+01
    -42.918  0.0000E+00  0.2000E+01
    -42.646  0.0000E+00  0.2000E+01
    -42.375  0.0000E+00  0.2000E+01
    -42.103  0.0000E+00  0.2000E+01
    -41.831  0.0000E+00  0.2000E+01
    -41.559  0.0000E+00  0.2000E+01
    -41.288  0.0000E+00  0.2000E+01
    -41.016  0.0000E+00  0.2000E+01
    -40.744  0.0000E+00  0.2000E+01
    -40.473  0.0000E+00  0.2000E+01
    -40.201  0.0000E+00  0.2000E+01
    -39.929  0.0000E+00  0.2000E+01
    -39.658  0.0000E+00  0.2000E+01
    -39.386  0.0000E+00  0.2000E+01
    -39.114  0.0000E+00  0.2000E+01
    -38.843  0.0000E+00  0.2000E+01
    -38.571  0.0000E+00  0.2000E+01
    -38.299  0.0000E+00  0.2000E+01
    -38.027  0.0000E+00  0.2000E+01
    -37.756  0.0000E+00  0.2000E+01
    -37.484  0.0000E+00  0.2000E+01
    -37.212  0.0000E+00  0.2000E+01
    -36.941  0.0000E+00  0.2000E+01
    -36.669  0.0000E+00  0.2000E+01
    -36.397  0.0000E+00  0.2000E+01
    -36.126  0.0000E+00  0.2000E+01
    -35.854  0.0000E+00  0.2000E+01
    -35.582  0.0000E+00  0.2000E+01
    -35.311  0.0000E+00  0.2000E+01
    -35.039  0.0000E+00  0.2000E+01
    -34.767  0.0000E+00  0.2000E+01
    -34.495  0.0000E+00  0.2000E+01
    -34.224  0.0000E+00  0.2000E+01
    -33.952  0.0000E+00  0.2000E+01
    -33.680  0.0000E+00  0.2000E+01
    -33.409  0.0000E+00  0.2000E+01
    -33.137  0.0000E+00  0.2000E+01
    -32.865  0.0000E+00  0.2000E+01
    -32.594  0.0000E+00  0.2000E+01
    -32.322  0.0000E+00  0.2000E+01
    -32.050  0.0000E+00  0.2000E+01
    -31.779  0.0000E+00  0.2000E+01
    -31.507  0.0000E+00  0.2000E+01
    -31.235  0.0000E+00  0.2000E+01
    -30.963  0.0000E+00  0.2000E+01
    -30.692  0.0000E+00  0.2000E+01
    -30.420  0.0000E+00  0.2000E+01
    -30.148  0.0000E+00  0.2000E+01
    -29.877  0.0000E+00  0.2000E+01
    -29.605  0.0000E+00  0.2000E+01
    -29.333  0.0000E+00  0.2000E+01
    -29.062  0.0000E+00  0.2000E+01
    -28.790  0.0000E+00  0.2000E+01
    -28.518  0.0000E+00  0.2000E+01
    -28.247  0.0000E+00  0.2000E+01
    -27.975  0.0000E+00  0.2000E+01
    -27.703  0.0000E+00  0.2000E+01
    -27.431  0.0000E+00  0.2000E+01
    -27.160  0.0000E+00  0.2000E+01
    -26.888  0.0000E+00  0.2000E+01
    -26.616  0.0000E+00  0.2000E+01
    -26.345  0.0000E+00  0.2000E+01
    -26.073  0.0000E+00  0.2000E+01
    -25.801  0.0000E+00  0.2000E+01
    -25.530  0.0000E+00  0.2000E+01
    -25.258  0.0000E+00  0.2000E+01
    -24.986  0.0000E+00  0.2000E+01
    -24.715  0.0000E+00  0.2000E+01
    -24.443  0.0000E+00  0.2000E+01
    -24.171  0.0000E+00  0.2000E+01
    -23.899  0.0000E+00  0.2000E+01
    -23.628  0.0000E+00  0.2000E+01
    -23.356  0.0000E+00  0.2000E+01
    -23.084  0.0000E+00  0.2000E+01
    -22.813  0.0000E+00  0.2000E+01
    -22.541  0.0000E+00  0.2000E+01
    -22.269  0.0000E+00  0.2000E+01
    -21.998  0.0000E+00  0.2000E+01
    -21.726  0.0000E+00  0.2000E+01
    -21.454  0.0000E+00  0.2000E+01
    -21.183  0.0000E+00  0.2000E+01
    -20.911  0.0000E+00  0.2000E+01
    -20.639  0.0000E+00  0.2000E+01
    -20.367  0.0000E+00  0.2000E+01
    -20.096  0.0000E+00  0.2000E+01
    -19.824  0.0000E+00  0.2000E+01
    -19.552  0.0000E+00  0.2000E+01
    -19.281  0.0000E+00  0.2000E+01
    -19.009  0.0000E+00  0.2000E+01
    -18.737  0.0000E+00  0.2000E+01
    -18.466  0.0000E+00  0.2000E+01
    -18.194  0.0000E+00  0.2000E+01
    -17.922  0.0000E+00  0.2000E+01
    -17.651  0.0000E+00  0.2000E+01
    -17.379  0.0000E+00  0.2000E+01
    -17.107  0.0000E+00  0.2000E+01
    -16.835  0.0000E+00  0.2000E+01
    -16.564  0.0000E+00  0.2000E+01
    -16.292  0.0000E+00  0.2000E+01
    -16.020  0.0000E+00  0.2000E+01
    -15.749  0.0000E+00  0.2000E+01
    -15.477  0.0000E+00  0.2000E+01
    -15.205  0.0000E+00  0.2000E+01
    -14.934  0.0000E+00  0.2000E+01
    -14.662  0.0000E+00  0.2000E+01
    -14.390  0.0000E+00  0.2000E+01
    -14.119  0.0000E+00  0.2000E+01
    -13.847  0.0000E+00  0.2000E+01
    -13.575  0.0000E+00  0.2000E+01
    -13.303  0.0000E+00  0.2375E+01
    -13.032  0.0000E+00  0.2625E+01
    -12.760  0.0000E+00  0.2812E+01
    -12.488  0.0000E+00  0.3562E+01
    -12.217  0.0000E+00  0.4312E+01
    -11.945  0.0000E+00  0.5688E+01
    -11.673  0.0000E+00  0.5875E+01
    -11.402  0.0000E+00  0.6062E+01
    -11.130  0.0000E+00  0.6688E+01
    -10.858  0.0000E+00  0.7062E+01
    -10.587  0.0000E+00  0.7062E+01
    -10.315  0.0000E+00  0.7812E+01
    -10.043  0.0000E+00  0.7906E+01
     -9.771  0.0000E+00  0.7938E+01
     -9.500  0.0000E+00  0.8000E+01
     -9.228  0.0000E+00  0.8000E+01
     -8.956  0.0000E+00  0.8000E+01
     -8.685  0.0000E+00  0.8000E+01
     -8.413  0.0000E+00  0.8000E+01
     -8.141  0.0000E+00  0.8000E+01
     -7.870  0.0000E+00  0.8000E+01
     -7.598  0.0000E+00  0.8000E+01
     -7.326  0.0000E+00  0.8000E+01
     -7.055  0.0000E+00  0.8000E+01
     -6.783  0.0000E+00  0.8000E+01
     -6.511  0.0000E+00  0.8000E+01
     -6.239  0.0000E+00  0.8000E+01
     -5.968  0.0000E+00  0.8000E+01
     -5.696  0.0000E+00  0.8000E+01
     -5.424  0.0000E+00  0.8000E+01
     -5.153  0.0000E+00  0.8000E+01
     -4.881  0.0000E+00  0.8000E+01
     -4.609  0.0000E+00  0.8000E+01
     -4.338  0.0000E+00  0.8000E+01
     -4.066  0.0000E+00  0.8000E+01
     -3.794  0.0000E+00  0.8000E+01
     -3.523  0.0000E+00  0.8000E+01
     -3.251  0.0000E+00  0.8000E+01
     -2.979  0.0000E+00  0.8000E+01
     -2.707  0.0000E+00  0.8000E+01
     -2.436  0.0000E+00  0.8000E+01
     -2.164  0.0000E+00  0.8000E+01
     -1.892  0.0000E+00  0.8000E+01
     -1.621  0.0000E+00  0.8000E+01
     -1.349  0.0000E+00  0.8000E+01
     -1.077  0.0000E+00  0.8000E+01
     -0.806  0.0000E+00  0.8000E+01
     -0.534  0.0000E+00  0.8000E+01
     -0.262  0.0000E+00  0.8000E+01
      0.009  0.0000E+00  0.8000E+01
      0.281  0.0000E+00  0.8000E+01
      0.553  0.0000E+00  0.8031E+01
      0.825  0.0000E+00  0.8031E+01
      1.096  0.0000E+00  0.8031E+01
      1.368  0.0000E+00  0.8031E+01
      1.640  0.0000E+00  0.8031E+01
      1.911  0.0000E+00  0.8031E+01
      2.183  0.0000E+00  0.8031E+01
      2.455  0.0000E+00  0.8031E+01
      2.726  0.0000E+00  0.8281E+01
      2.998  0.0000E+00  0.8281E+01
      3.270  0.0000E+00  0.8281E+01
      3.541  0.0000E+00  0.8469E+01
      3.813  0.0000E+00  0.8469E+01
      4.085  0.0000E+00  0.8469E+01
      4.357  0.0000E+00  0.8469E+01
      4.628  0.0000E+00  0.8469E+01
      4.900  0.0000E+00  0.8469E+01
      5.172  0.0000E+00  0.8469E+01
      5.443  0.0000E+00  0.8469E+01
      5.715  0.0000E+00  0.8469E+01
      5.987  0.0000E+00  0.8469E+01
      6.258  0.0000E+00  0.8844E+01
      6.530  0.0000E+00  0.8844E+01
      6.802  0.0000E+00  0.8844E+01
      7.073  0.0000E+00  0.8844E+01
      7.345  0.0000E+00  0.8969E+01
      7.617  0.0000E+00  0.8969E+01
      7.889  0.0000E+00  0.9719E+01
      8.160  0.0000E+00  0.9719E+01
      8.432  0.0000E+00  0.9812E+01
      8.704  0.0000E+00  0.9812E+01
      8.975  0.0000E+00  0.9812E+01
      9.247  0.0000E+00  0.9812E+01
      9.519  0.0000E+00  0.9812E+01
      9.790  0.0000E+00  0.9938E+01
     10.062  0.0000E+00  0.1012E+02
     10.334  0.0000E+00  0.1012E+02
     10.605  0.0000E+00  0.1012E+02
     10.877  0.0000E+00  0.1012E+02
     11.149  0.0000E+00  0.1012E+02
     11.420  0.2760E+01  0.1087E+02
     11.692  0.0000E+00  0.1088E+02
     11.964  0.0000E+00  0.1088E+02
     12.236  0.0000E+00  0.1088E+02
     12.507  0.0000E+00  0.1125E+02
     12.779  0.0000E+00  0.1134E+02
     13.051  0.0000E+00  0.1172E+02
     13.322  0.0000E+00  0.1219E+02
     13.594  0.0000E+00  0.1219E+02
     13.866  0.0000E+00  0.1219E+02
     14.137  0.0000E+00  0.1219E+02
     14.409  0.0000E+00  0.1338E+02
     14.681  0.0000E+00  0.1338E+02
     14.952  0.0000E+00  0.1338E+02
     15.224  0.0000E+00  0.1338E+02
     15.496  0.0000E+00  0.1356E+02
     15.768  0.0000E+00  0.1356E+02
     16.039  0.0000E+00  0.1356E+02
     16.311  0.0000E+00  0.1356E+02
     16.583  0.0000E+00  0.1356E+02
     16.854  0.0000E+00  0.1375E+02
     17.126  0.0000E+00  0.1375E+02
     17.398  0.0000E+00  0.1375E+02
     17.669  0.0000E+00  0.1375E+02
     17.941  0.0000E+00  0.1375E+02
     18.213  0.0000E+00  0.1375E+02
     18.484  0.0000E+00  0.1375E+02
     18.756  0.0000E+00  0.1375E+02
     19.028  0.0000E+00  0.1375E+02
     19.300  0.0000E+00  0.1475E+02
     19.571  0.0000E+00  0.1512E+02
     19.843  0.0000E+00  0.1531E+02
     20.115  0.0000E+00  0.1644E+02
     20.386  0.0000E+00  0.1694E+02
     20.658  0.0000E+00  0.1703E+02
     20.930  0.0000E+00  0.1703E+02
     21.201  0.0000E+00  0.1703E+02
     21.473  0.0000E+00  0.1703E+02
     21.745  0.0000E+00  0.1703E+02
     22.016  0.0000E+00  0.1716E+02
     22.288  0.0000E+00  0.1716E+02
     22.560  0.0000E+00  0.1741E+02
     22.832  0.0000E+00  0.1750E+02
     23.103  0.0000E+00  0.1753E+02
     23.375  0.0000E+00  0.1791E+02
     23.647  0.0000E+00  0.1791E+02
     23.918  0.0000E+00  0.1791E+02
     24.190  0.0000E+00  0.1791E+02
     24.462  0.0000E+00  0.1791E+02
     24.733  0.0000E+00  0.1816E+02
     25.005  0.0000E+00  0.1853E+02
     25.277  0.0000E+00  0.1853E+02
     25.548  0.0000E+00  0.1891E+02
     25.820  0.0000E+00  0.1891E+02
     26.092  0.0000E+00  0.1891E+02
     26.364  0.0000E+00  0.1891E+02
     26.635  0.0000E+00  0.1891E+02
     26.907  0.0000E+00  0.1903E+02
     27.179  0.0000E+00  0.1925E+02
     27.450  0.0000E+00  0.1925E+02
     27.722  0.0000E+00  0.1925E+02
     27.994  0.0000E+00  0.1925E+02
     28.265  0.0000E+00  0.1925E+02
     28.537  0.0000E+00  0.1925E+02
     28.809  0.0000E+00  0.1925E+02
     29.080  0.0000E+00  0.2000E+02
     29.352  0.0000E+00  0.2000E+02
     29.624  0.0000E+00  0.2000E+02
     29.896  0.0000E+00  0.2000E+02
     30.167  0.0000E+00  0.2000E+02
     30.439  0.0000E+00  0.2000E+02
     30.711  0.0000E+00  0.2000E+02
     30.982  0.0000E+00  0.2000E+02
     31.254  0.0000E+00  0.2000E+02
     31.526  0.0000E+00  0.2000E+02
     31.797  0.0000E+00  0.2000E+02
     32.069  0.0000E+00  0.2000E+02
     32.341  0.0000E+00  0.2000E+02
     32.612  0.0000E+00  0.2000E+02
