    1    1    1    1
  0.1860393E+02  0.2974221E-09  0.2974221E-09  0.2974221E-09  0.1000000E-15
  1.000000000000000E-004
  CAR 
 Og_FCC                                  
      8     64     20
 
  0.0000000E+00  0.0000000E+00  0.0000000E+00  0.1562500E-01
    1      -44.787906   1.000000
    2      -44.787906   1.000000
    3       -9.802961   1.000000
    4       -9.802961   1.000000
    5       -9.759376   1.000000
    6       -9.759376   1.000000
    7       -9.759373   1.000000
    8       -9.759373   1.000000
    9        0.451063   0.000000
   10        0.451063   0.000000
   11       20.636949   0.000000
   12       20.636949   0.000000
   13       20.636965   0.000000
   14       20.636965   0.000000
   15       20.637184   0.000000
   16       20.637184   0.000000
   17       22.996993   0.000000
   18       22.996993   0.000000
   19       26.965188   0.000000
   20       26.965776   0.000000
 
  0.2500000E+00  0.2775558E-16 -0.4163336E-16  0.1562500E-01
    1      -45.092455   1.000000
    2      -45.092455   1.000000
    3      -13.247835   1.000000
    4      -13.247835   1.000000
    5      -11.361147   1.000000
    6      -11.361147   1.000000
    7      -11.328107   1.000000
    8      -11.328107   1.000000
    9        2.558270   0.000000
   10        2.558270   0.000000
   11       14.169450   0.000000
   12       14.169450   0.000000
   13       20.262746   0.000000
   14       20.262746   0.000000
   15       20.262947   0.000000
   16       20.262947   0.000000
   17       22.323280   0.000000
   18       22.323280   0.000000
   19       24.666812   0.000000
   20       24.666832   0.000000
 
  0.5000000E+00  0.5551115E-16 -0.8326673E-16  0.1562500E-01
    1      -45.011348   1.000000
    2      -45.011348   1.000000
    3      -12.154609   1.000000
    4      -12.154609   1.000000
    5      -12.118780   1.000000
    6      -12.118780   1.000000
    7      -11.246909   1.000000
    8      -11.246909   1.000000
    9        7.110913   0.000000
   10        7.110913   0.000000
   11        9.692450   0.000000
   12        9.692450   0.000000
   13       19.113630   0.000000
   14       19.113630   0.000000
   15       19.113857   0.000000
   16       19.113857   0.000000
   17       21.764113   0.000000
   18       21.764113   0.000000
   19       26.792032   0.000000
   20       26.793101   0.000000
 
 -0.2500000E+00 -0.2775558E-16  0.4163336E-16  0.1562500E-01
    1      -45.092455   1.000000
    2      -45.092455   1.000000
    3      -13.247835   1.000000
    4      -13.247835   1.000000
    5      -11.361147   1.000000
    6      -11.361147   1.000000
    7      -11.328107   1.000000
    8      -11.328107   1.000000
    9        2.558270   0.000000
   10        2.558270   0.000000
   11       14.169450   0.000000
   12       14.169450   0.000000
   13       20.262746   0.000000
   14       20.262746   0.000000
   15       20.262947   0.000000
   16       20.262947   0.000000
   17       22.323280   0.000000
   18       22.323280   0.000000
   19       24.666805   0.000000
   20       24.666853   0.000000
 
  0.0000000E+00  0.2500000E+00  0.2775558E-16  0.1562500E-01
    1      -45.092455   1.000000
    2      -45.092455   1.000000
    3      -13.247835   1.000000
    4      -13.247835   1.000000
    5      -11.361147   1.000000
    6      -11.361147   1.000000
    7      -11.328107   1.000000
    8      -11.328107   1.000000
    9        2.558270   0.000000
   10        2.558270   0.000000
   11       14.169449   0.000000
   12       14.169449   0.000000
   13       20.262745   0.000000
   14       20.262745   0.000000
   15       20.262947   0.000000
   16       20.262947   0.000000
   17       22.323279   0.000000
   18       22.323279   0.000000
   19       24.666677   0.000000
   20       24.667060   0.000000
 
  0.2500000E+00  0.2500000E+00 -0.2775558E-16  0.1562500E-01
    1      -45.190229   1.000000
    2      -45.190229   1.000000
    3      -12.807104   1.000000
    4      -12.807104   1.000000
    5      -12.371864   1.000000
    6      -12.371864   1.000000
    7      -12.337827   1.000000
    8      -12.337827   1.000000
    9        3.443364   0.000000
   10        3.443364   0.000000
   11       15.353207   0.000000
   12       15.353207   0.000000
   13       16.671720   0.000000
   14       16.671720   0.000000
   15       19.537701   0.000000
   16       19.537701   0.000000
   17       19.541418   0.000000
   18       19.541418   0.000000
   19       26.965211   0.000000
   20       26.965211   0.000000
 
  0.5000000E+00  0.2500000E+00  0.5551115E-16  0.1562500E-01
    1      -44.982532   1.000000
    2      -44.982532   1.000000
    3      -12.607703   1.000000
    4      -12.607703   1.000000
    5      -12.064364   1.000000
    6      -12.064364   1.000000
    7      -10.505994   1.000000
    8      -10.505994   1.000000
    9        7.822869   0.000000
   10        7.822869   0.000000
   11       11.415615   0.000000
   12       11.415615   0.000000
   13       14.262065   0.000000
   14       14.262065   0.000000
   15       19.235709   0.000000
   16       19.235709   0.000000
   17       19.984527   0.000000
   18       19.984527   0.000000
   19       28.907578   0.000000
   20       28.907578   0.000000
 
 -0.2500000E+00  0.2500000E+00  0.1077834E-16  0.1562500E-01
    1      -45.167648   1.000000
    2      -45.167648   1.000000
    3      -13.538013   1.000000
    4      -13.538013   1.000000
    5      -12.398987   1.000000
    6      -12.398987   1.000000
    7      -12.150767   1.000000
    8      -12.150767   1.000000
    9        6.075656   0.000000
   10        6.075656   0.000000
   11       12.945061   0.000000
   12       12.945061   0.000000
   13       13.313095   0.000000
   14       13.313095   0.000000
   15       19.876273   0.000000
   16       19.876273   0.000000
   17       23.184269   0.000000
   18       23.184269   0.000000
   19       24.765262   0.000000
   20       24.765262   0.000000
 
  0.0000000E+00  0.5000000E+00  0.5551115E-16  0.1562500E-01
    1      -45.011348   1.000000
    2      -45.011348   1.000000
    3      -12.154609   1.000000
    4      -12.154609   1.000000
    5      -12.118779   1.000000
    6      -12.118779   1.000000
    7      -11.246909   1.000000
    8      -11.246909   1.000000
    9        7.110912   0.000000
   10        7.110912   0.000000
   11        9.692451   0.000000
   12        9.692451   0.000000
   13       19.113629   0.000000
   14       19.113629   0.000000
   15       19.113856   0.000000
   16       19.113856   0.000000
   17       21.764113   0.000000
   18       21.764113   0.000000
   19       26.791661   0.000000
   20       26.793287   0.000000
 
  0.2500000E+00  0.5000000E+00 -0.2775558E-16  0.1562500E-01
    1      -44.982532   1.000000
    2      -44.982532   1.000000
    3      -12.607703   1.000000
    4      -12.607703   1.000000
    5      -12.064364   1.000000
    6      -12.064364   1.000000
    7      -10.505995   1.000000
    8      -10.505995   1.000000
    9        7.822869   0.000000
   10        7.822869   0.000000
   11       11.415614   0.000000
   12       11.415614   0.000000
   13       14.262066   0.000000
   14       14.262066   0.000000
   15       19.235709   0.000000
   16       19.235709   0.000000
   17       19.984527   0.000000
   18       19.984527   0.000000
   19       28.907579   0.000000
   20       28.907579   0.000000
 
  0.5000000E+00  0.5000000E+00 -0.5551115E-16  0.1562500E-01
    1      -44.929499   1.000000
    2      -44.929499   1.000000
    3      -11.829487   1.000000
    4      -11.829487   1.000000
    5      -11.796994   1.000000
    6      -11.796994   1.000000
    7      -10.299262   1.000000
    8      -10.299262   1.000000
    9        8.240219   0.000000
   10        8.240219   0.000000
   11       12.669864   0.000000
   12       12.669864   0.000000
   13       13.251909   0.000000
   14       13.251909   0.000000
   15       19.616446   0.000000
   16       19.616446   0.000000
   17       19.622628   0.000000
   18       19.622628   0.000000
   19       22.636317   0.000000
   20       22.636317   0.000000
 
 -0.2500000E+00  0.5000000E+00  0.1387779E-16  0.1562500E-01
    1      -44.982532   1.000000
    2      -44.982532   1.000000
    3      -12.607703   1.000000
    4      -12.607703   1.000000
    5      -12.064364   1.000000
    6      -12.064364   1.000000
    7      -10.505995   1.000000
    8      -10.505995   1.000000
    9        7.822869   0.000000
   10        7.822869   0.000000
   11       11.415614   0.000000
   12       11.415614   0.000000
   13       14.262066   0.000000
   14       14.262066   0.000000
   15       19.235709   0.000000
   16       19.235709   0.000000
   17       19.984527   0.000000
   18       19.984527   0.000000
   19       28.907579   0.000000
   20       28.907579   0.000000
 
  0.0000000E+00 -0.2500000E+00 -0.2775558E-16  0.1562500E-01
    1      -45.092455   1.000000
    2      -45.092455   1.000000
    3      -13.247835   1.000000
    4      -13.247835   1.000000
    5      -11.361147   1.000000
    6      -11.361147   1.000000
    7      -11.328107   1.000000
    8      -11.328107   1.000000
    9        2.558270   0.000000
   10        2.558270   0.000000
   11       14.169449   0.000000
   12       14.169449   0.000000
   13       20.262745   0.000000
   14       20.262745   0.000000
   15       20.262947   0.000000
   16       20.262947   0.000000
   17       22.323279   0.000000
   18       22.323279   0.000000
   19       24.666684   0.000000
   20       24.667005   0.000000
 
  0.2500000E+00 -0.2500000E+00 -0.1077834E-16  0.1562500E-01
    1      -45.167648   1.000000
    2      -45.167648   1.000000
    3      -13.538013   1.000000
    4      -13.538013   1.000000
    5      -12.398987   1.000000
    6      -12.398987   1.000000
    7      -12.150767   1.000000
    8      -12.150767   1.000000
    9        6.075656   0.000000
   10        6.075656   0.000000
   11       12.945061   0.000000
   12       12.945061   0.000000
   13       13.313095   0.000000
   14       13.313095   0.000000
   15       19.876273   0.000000
   16       19.876273   0.000000
   17       23.184269   0.000000
   18       23.184269   0.000000
   19       24.765262   0.000000
   20       24.765262   0.000000
 
  0.5000000E+00 -0.2500000E+00 -0.5551115E-16  0.1562500E-01
    1      -44.982532   1.000000
    2      -44.982532   1.000000
    3      -12.607703   1.000000
    4      -12.607703   1.000000
    5      -12.064364   1.000000
    6      -12.064364   1.000000
    7      -10.505994   1.000000
    8      -10.505994   1.000000
    9        7.822869   0.000000
   10        7.822869   0.000000
   11       11.415615   0.000000
   12       11.415615   0.000000
   13       14.262065   0.000000
   14       14.262065   0.000000
   15       19.235709   0.000000
   16       19.235709   0.000000
   17       19.984527   0.000000
   18       19.984527   0.000000
   19       28.907578   0.000000
   20       28.907578   0.000000
 
 -0.2500000E+00 -0.2500000E+00  0.2775558E-16  0.1562500E-01
    1      -45.190229   1.000000
    2      -45.190229   1.000000
    3      -12.807104   1.000000
    4      -12.807104   1.000000
    5      -12.371864   1.000000
    6      -12.371864   1.000000
    7      -12.337827   1.000000
    8      -12.337827   1.000000
    9        3.443364   0.000000
   10        3.443364   0.000000
   11       15.353207   0.000000
   12       15.353207   0.000000
   13       16.671720   0.000000
   14       16.671720   0.000000
   15       19.537701   0.000000
   16       19.537701   0.000000
   17       19.541418   0.000000
   18       19.541418   0.000000
   19       26.965211   0.000000
   20       26.965211   0.000000
 
  0.0000000E+00  0.0000000E+00  0.2500000E+00  0.1562500E-01
    1      -45.092455   1.000000
    2      -45.092455   1.000000
    3      -13.247839   1.000000
    4      -13.247839   1.000000
    5      -11.361145   1.000000
    6      -11.361145   1.000000
    7      -11.328105   1.000000
    8      -11.328105   1.000000
    9        2.558272   0.000000
   10        2.558272   0.000000
   11       14.169443   0.000000
   12       14.169443   0.000000
   13       20.262762   0.000000
   14       20.262762   0.000000
   15       20.262963   0.000000
   16       20.262963   0.000000
   17       22.323260   0.000000
   18       22.323260   0.000000
   19       24.666584   0.000000
   20       24.667095   0.000000
 
  0.2500000E+00  0.2775558E-16  0.2500000E+00  0.1562500E-01
    1      -45.190229   1.000000
    2      -45.190229   1.000000
    3      -12.807104   1.000000
    4      -12.807104   1.000000
    5      -12.371864   1.000000
    6      -12.371864   1.000000
    7      -12.337827   1.000000
    8      -12.337827   1.000000
    9        3.443364   0.000000
   10        3.443364   0.000000
   11       15.353207   0.000000
   12       15.353207   0.000000
   13       16.671720   0.000000
   14       16.671720   0.000000
   15       19.537701   0.000000
   16       19.537701   0.000000
   17       19.541418   0.000000
   18       19.541418   0.000000
   19       26.965211   0.000000
   20       26.965211   0.000000
 
  0.5000000E+00  0.5551115E-16  0.2500000E+00  0.1562500E-01
    1      -44.982532   1.000000
    2      -44.982532   1.000000
    3      -12.607701   1.000000
    4      -12.607701   1.000000
    5      -12.064365   1.000000
    6      -12.064365   1.000000
    7      -10.505995   1.000000
    8      -10.505995   1.000000
    9        7.822871   0.000000
   10        7.822871   0.000000
   11       11.415618   0.000000
   12       11.415618   0.000000
   13       14.262064   0.000000
   14       14.262064   0.000000
   15       19.235721   0.000000
   16       19.235721   0.000000
   17       19.984513   0.000000
   18       19.984513   0.000000
   19       28.907573   0.000000
   20       28.907573   0.000000
 
 -0.2500000E+00 -0.2775558E-16  0.2500000E+00  0.1562500E-01
    1      -45.167648   1.000000
    2      -45.167648   1.000000
    3      -13.538011   1.000000
    4      -13.538011   1.000000
    5      -12.398988   1.000000
    6      -12.398988   1.000000
    7      -12.150767   1.000000
    8      -12.150767   1.000000
    9        6.075656   0.000000
   10        6.075656   0.000000
   11       12.945058   0.000000
   12       12.945058   0.000000
   13       13.313098   0.000000
   14       13.313098   0.000000
   15       19.876282   0.000000
   16       19.876282   0.000000
   17       23.184251   0.000000
   18       23.184251   0.000000
   19       24.765278   0.000000
   20       24.765278   0.000000
 
  0.0000000E+00  0.2500000E+00  0.2500000E+00  0.1562500E-01
    1      -45.190229   1.000000
    2      -45.190229   1.000000
    3      -12.807104   1.000000
    4      -12.807104   1.000000
    5      -12.371864   1.000000
    6      -12.371864   1.000000
    7      -12.337827   1.000000
    8      -12.337827   1.000000
    9        3.443366   0.000000
   10        3.443366   0.000000
   11       15.353209   0.000000
   12       15.353209   0.000000
   13       16.671717   0.000000
   14       16.671717   0.000000
   15       19.537701   0.000000
   16       19.537701   0.000000
   17       19.541418   0.000000
   18       19.541418   0.000000
   19       26.965204   0.000000
   20       26.965204   0.000000
 
  0.2500000E+00  0.2500000E+00  0.2500000E+00  0.1562500E-01
    1      -45.092455   1.000000
    2      -45.092455   1.000000
    3      -13.247829   1.000000
    4      -13.247829   1.000000
    5      -11.361148   1.000000
    6      -11.361148   1.000000
    7      -11.328108   1.000000
    8      -11.328108   1.000000
    9        2.558269   0.000000
   10        2.558269   0.000000
   11       14.169448   0.000000
   12       14.169448   0.000000
   13       20.262743   0.000000
   14       20.262743   0.000000
   15       20.262943   0.000000
   16       20.262943   0.000000
   17       22.323253   0.000000
   18       22.323253   0.000000
   19       24.666490   0.000000
   20       24.667302   0.000000
 
  0.5000000E+00  0.2500000E+00  0.2500000E+00  0.1562500E-01
    1      -45.167648   1.000000
    2      -45.167648   1.000000
    3      -13.538016   1.000000
    4      -13.538016   1.000000
    5      -12.398982   1.000000
    6      -12.398982   1.000000
    7      -12.150767   1.000000
    8      -12.150767   1.000000
    9        6.075654   0.000000
   10        6.075654   0.000000
   11       12.945059   0.000000
   12       12.945059   0.000000
   13       13.313080   0.000000
   14       13.313080   0.000000
   15       19.876291   0.000000
   16       19.876291   0.000000
   17       23.184286   0.000000
   18       23.184286   0.000000
   19       24.765266   0.000000
   20       24.765266   0.000000
 
 -0.2500000E+00  0.2500000E+00  0.2500000E+00  0.1562500E-01
    1      -44.982532   1.000000
    2      -44.982532   1.000000
    3      -12.607707   1.000000
    4      -12.607707   1.000000
    5      -12.064361   1.000000
    6      -12.064361   1.000000
    7      -10.505994   1.000000
    8      -10.505994   1.000000
    9        7.822865   0.000000
   10        7.822865   0.000000
   11       11.415627   0.000000
   12       11.415627   0.000000
   13       14.262047   0.000000
   14       14.262047   0.000000
   15       19.235731   0.000000
   16       19.235731   0.000000
   17       19.984523   0.000000
   18       19.984523   0.000000
   19       28.907580   0.000000
   20       28.907580   0.000000
 
  0.0000000E+00  0.5000000E+00  0.2500000E+00  0.1562500E-01
    1      -44.982532   1.000000
    2      -44.982532   1.000000
    3      -12.607701   1.000000
    4      -12.607701   1.000000
    5      -12.064365   1.000000
    6      -12.064365   1.000000
    7      -10.505995   1.000000
    8      -10.505995   1.000000
    9        7.822871   0.000000
   10        7.822871   0.000000
   11       11.415617   0.000000
   12       11.415617   0.000000
   13       14.262062   0.000000
   14       14.262062   0.000000
   15       19.235722   0.000000
   16       19.235722   0.000000
   17       19.984514   0.000000
   18       19.984514   0.000000
   19       28.907570   0.000000
   20       28.907570   0.000000
 
  0.2500000E+00  0.5000000E+00  0.2500000E+00  0.1562500E-01
    1      -45.167648   1.000000
    2      -45.167648   1.000000
    3      -13.538016   1.000000
    4      -13.538016   1.000000
    5      -12.398982   1.000000
    6      -12.398982   1.000000
    7      -12.150767   1.000000
    8      -12.150767   1.000000
    9        6.075654   0.000000
   10        6.075654   0.000000
   11       12.945061   0.000000
   12       12.945061   0.000000
   13       13.313077   0.000000
   14       13.313077   0.000000
   15       19.876289   0.000000
   16       19.876289   0.000000
   17       23.184287   0.000000
   18       23.184287   0.000000
   19       24.765268   0.000000
   20       24.765268   0.000000
 
  0.5000000E+00  0.5000000E+00  0.2500000E+00  0.1562500E-01
    1      -44.982531   1.000000
    2      -44.982531   1.000000
    3      -12.607705   1.000000
    4      -12.607705   1.000000
    5      -12.064366   1.000000
    6      -12.064366   1.000000
    7      -10.505991   1.000000
    8      -10.505991   1.000000
    9        7.822861   0.000000
   10        7.822861   0.000000
   11       11.415622   0.000000
   12       11.415622   0.000000
   13       14.262054   0.000000
   14       14.262054   0.000000
   15       19.235733   0.000000
   16       19.235733   0.000000
   17       19.984524   0.000000
   18       19.984524   0.000000
   19       28.907560   0.000000
   20       28.907560   0.000000
 
 -0.2500000E+00  0.5000000E+00  0.2500000E+00  0.1562500E-01
    1      -44.900538   1.000000
    2      -44.900538   1.000000
    3      -11.456223   1.000000
    4      -11.456223   1.000000
    5      -11.121972   1.000000
    6      -11.121972   1.000000
    7      -11.095914   1.000000
    8      -11.095914   1.000000
    9       10.036276   0.000000
   10       10.036276   0.000000
   11       12.310343   0.000000
   12       12.310343   0.000000
   13       12.315783   0.000000
   14       12.315783   0.000000
   15       14.332351   0.000000
   16       14.332351   0.000000
   17       25.496147   0.000000
   18       25.496147   0.000000
   19       25.497987   0.000000
   20       25.497987   0.000000
 
  0.0000000E+00 -0.2500000E+00  0.2500000E+00  0.1562500E-01
    1      -45.167648   1.000000
    2      -45.167648   1.000000
    3      -13.538011   1.000000
    4      -13.538011   1.000000
    5      -12.398988   1.000000
    6      -12.398988   1.000000
    7      -12.150767   1.000000
    8      -12.150767   1.000000
    9        6.075657   0.000000
   10        6.075657   0.000000
   11       12.945055   0.000000
   12       12.945055   0.000000
   13       13.313100   0.000000
   14       13.313100   0.000000
   15       19.876286   0.000000
   16       19.876286   0.000000
   17       23.184251   0.000000
   18       23.184251   0.000000
   19       24.765276   0.000000
   20       24.765276   0.000000
 
  0.2500000E+00 -0.2500000E+00  0.2500000E+00  0.1562500E-01
    1      -44.982532   1.000000
    2      -44.982532   1.000000
    3      -12.607707   1.000000
    4      -12.607707   1.000000
    5      -12.064361   1.000000
    6      -12.064361   1.000000
    7      -10.505994   1.000000
    8      -10.505994   1.000000
    9        7.822864   0.000000
   10        7.822864   0.000000
   11       11.415628   0.000000
   12       11.415628   0.000000
   13       14.262047   0.000000
   14       14.262047   0.000000
   15       19.235730   0.000000
   16       19.235730   0.000000
   17       19.984524   0.000000
   18       19.984524   0.000000
   19       28.907582   0.000000
   20       28.907582   0.000000
 
  0.5000000E+00 -0.2500000E+00  0.2500000E+00  0.1562500E-01
    1      -44.900538   1.000000
    2      -44.900538   1.000000
    3      -11.456224   1.000000
    4      -11.456224   1.000000
    5      -11.121972   1.000000
    6      -11.121972   1.000000
    7      -11.095914   1.000000
    8      -11.095914   1.000000
    9       10.036277   0.000000
   10       10.036277   0.000000
   11       12.310344   0.000000
   12       12.310344   0.000000
   13       12.315784   0.000000
   14       12.315784   0.000000
   15       14.332347   0.000000
   16       14.332347   0.000000
   17       25.496150   0.000000
   18       25.496150   0.000000
   19       25.497990   0.000000
   20       25.497990   0.000000
 
 -0.2500000E+00 -0.2500000E+00  0.2500000E+00  0.1562500E-01
    1      -44.982532   1.000000
    2      -44.982532   1.000000
    3      -12.607705   1.000000
    4      -12.607705   1.000000
    5      -12.064360   1.000000
    6      -12.064360   1.000000
    7      -10.505996   1.000000
    8      -10.505996   1.000000
    9        7.822865   0.000000
   10        7.822865   0.000000
   11       11.415631   0.000000
   12       11.415631   0.000000
   13       14.262048   0.000000
   14       14.262048   0.000000
   15       19.235745   0.000000
   16       19.235745   0.000000
   17       19.984509   0.000000
   18       19.984509   0.000000
   19       28.907578   0.000000
   20       28.907578   0.000000
 
  0.0000000E+00  0.0000000E+00  0.5000000E+00  0.1562500E-01
    1      -45.011348   1.000000
    2      -45.011348   1.000000
    3      -12.154608   1.000000
    4      -12.154608   1.000000
    5      -12.118778   1.000000
    6      -12.118778   1.000000
    7      -11.246910   1.000000
    8      -11.246910   1.000000
    9        7.110915   0.000000
   10        7.110915   0.000000
   11        9.692446   0.000000
   12        9.692446   0.000000
   13       19.113643   0.000000
   14       19.113643   0.000000
   15       19.113870   0.000000
   16       19.113870   0.000000
   17       21.764094   0.000000
   18       21.764094   0.000000
   19       26.791624   0.000000
   20       26.794074   0.000000
 
  0.2500000E+00  0.2775558E-16  0.5000000E+00  0.1562500E-01
    1      -44.982532   1.000000
    2      -44.982532   1.000000
    3      -12.607701   1.000000
    4      -12.607701   1.000000
    5      -12.064363   1.000000
    6      -12.064363   1.000000
    7      -10.505996   1.000000
    8      -10.505996   1.000000
    9        7.822870   0.000000
   10        7.822870   0.000000
   11       11.415618   0.000000
   12       11.415618   0.000000
   13       14.262066   0.000000
   14       14.262066   0.000000
   15       19.235724   0.000000
   16       19.235724   0.000000
   17       19.984512   0.000000
   18       19.984512   0.000000
   19       28.907575   0.000000
   20       28.907575   0.000000
 
  0.5000000E+00  0.5551115E-16  0.5000000E+00  0.1562500E-01
    1      -44.929499   1.000000
    2      -44.929499   1.000000
    3      -11.829487   1.000000
    4      -11.829487   1.000000
    5      -11.796994   1.000000
    6      -11.796994   1.000000
    7      -10.299262   1.000000
    8      -10.299262   1.000000
    9        8.240219   0.000000
   10        8.240219   0.000000
   11       12.669864   0.000000
   12       12.669864   0.000000
   13       13.251909   0.000000
   14       13.251909   0.000000
   15       19.616446   0.000000
   16       19.616446   0.000000
   17       19.622628   0.000000
   18       19.622628   0.000000
   19       22.636317   0.000000
   20       22.636317   0.000000
 
 -0.2500000E+00 -0.2775558E-16  0.5000000E+00  0.1562500E-01
    1      -44.982532   1.000000
    2      -44.982532   1.000000
    3      -12.607701   1.000000
    4      -12.607701   1.000000
    5      -12.064363   1.000000
    6      -12.064363   1.000000
    7      -10.505996   1.000000
    8      -10.505996   1.000000
    9        7.822870   0.000000
   10        7.822870   0.000000
   11       11.415618   0.000000
   12       11.415618   0.000000
   13       14.262066   0.000000
   14       14.262066   0.000000
   15       19.235724   0.000000
   16       19.235724   0.000000
   17       19.984512   0.000000
   18       19.984512   0.000000
   19       28.907575   0.000000
   20       28.907575   0.000000
 
  0.0000000E+00  0.2500000E+00  0.5000000E+00  0.1562500E-01
    1      -44.982532   1.000000
    2      -44.982532   1.000000
    3      -12.607701   1.000000
    4      -12.607701   1.000000
    5      -12.064363   1.000000
    6      -12.064363   1.000000
    7      -10.505996   1.000000
    8      -10.505996   1.000000
    9        7.822871   0.000000
   10        7.822871   0.000000
   11       11.415617   0.000000
   12       11.415617   0.000000
   13       14.262065   0.000000
   14       14.262065   0.000000
   15       19.235726   0.000000
   16       19.235726   0.000000
   17       19.984513   0.000000
   18       19.984513   0.000000
   19       28.907571   0.000000
   20       28.907571   0.000000
 
  0.2500000E+00  0.2500000E+00  0.5000000E+00  0.1562500E-01
    1      -45.167648   1.000000
    2      -45.167648   1.000000
    3      -13.538014   1.000000
    4      -13.538014   1.000000
    5      -12.398983   1.000000
    6      -12.398983   1.000000
    7      -12.150767   1.000000
    8      -12.150767   1.000000
    9        6.075654   0.000000
   10        6.075654   0.000000
   11       12.945058   0.000000
   12       12.945058   0.000000
   13       13.313080   0.000000
   14       13.313080   0.000000
   15       19.876297   0.000000
   16       19.876297   0.000000
   17       23.184269   0.000000
   18       23.184269   0.000000
   19       24.765284   0.000000
   20       24.765284   0.000000
 
  0.5000000E+00  0.2500000E+00  0.5000000E+00  0.1562500E-01
    1      -44.982531   1.000000
    2      -44.982531   1.000000
    3      -12.607707   1.000000
    4      -12.607707   1.000000
    5      -12.064365   1.000000
    6      -12.064365   1.000000
    7      -10.505990   1.000000
    8      -10.505990   1.000000
    9        7.822860   0.000000
   10        7.822860   0.000000
   11       11.415618   0.000000
   12       11.415618   0.000000
   13       14.262055   0.000000
   14       14.262055   0.000000
   15       19.235721   0.000000
   16       19.235721   0.000000
   17       19.984537   0.000000
   18       19.984537   0.000000
   19       28.907565   0.000000
   20       28.907565   0.000000
 
 -0.2500000E+00  0.2500000E+00  0.5000000E+00  0.1562500E-01
    1      -44.900538   1.000000
    2      -44.900538   1.000000
    3      -11.456223   1.000000
    4      -11.456223   1.000000
    5      -11.121972   1.000000
    6      -11.121972   1.000000
    7      -11.095914   1.000000
    8      -11.095914   1.000000
    9       10.036276   0.000000
   10       10.036276   0.000000
   11       12.310343   0.000000
   12       12.310343   0.000000
   13       12.315783   0.000000
   14       12.315783   0.000000
   15       14.332351   0.000000
   16       14.332351   0.000000
   17       25.496147   0.000000
   18       25.496147   0.000000
   19       25.497987   0.000000
   20       25.497987   0.000000
 
  0.0000000E+00  0.5000000E+00  0.5000000E+00  0.1562500E-01
    1      -44.929499   1.000000
    2      -44.929499   1.000000
    3      -11.829487   1.000000
    4      -11.829487   1.000000
    5      -11.796994   1.000000
    6      -11.796994   1.000000
    7      -10.299263   1.000000
    8      -10.299263   1.000000
    9        8.240223   0.000000
   10        8.240223   0.000000
   11       12.669860   0.000000
   12       12.669860   0.000000
   13       13.251911   0.000000
   14       13.251911   0.000000
   15       19.616447   0.000000
   16       19.616447   0.000000
   17       19.622629   0.000000
   18       19.622629   0.000000
   19       22.636310   0.000000
   20       22.636310   0.000000
 
  0.2500000E+00  0.5000000E+00  0.5000000E+00  0.1562500E-01
    1      -44.982531   1.000000
    2      -44.982531   1.000000
    3      -12.607707   1.000000