   1   1   0   0
  0.4557239E+02  0.4009334E-09  0.4009334E-09  0.4009334E-09  0.1000000E-15
  1.000000000000000E-004
  CAR 
 Og_FCC                                  
     73.25966967    -22.67029072  301     -3.40435700      1.00000000
    -22.670  0.0000E+00  0.0000E+00
    -22.351  0.0000E+00  0.0000E+00
    -22.031  0.0000E+00  0.0000E+00
    -21.711  0.0000E+00  0.0000E+00
    -21.391  0.0000E+00  0.0000E+00
    -21.071  0.0000E+00  0.0000E+00
    -20.752  0.0000E+00  0.0000E+00
    -20.432  0.0000E+00  0.0000E+00
    -20.112  0.0000E+00  0.0000E+00
    -19.792  0.0000E+00  0.0000E+00
    -19.473  0.0000E+00  0.0000E+00
    -19.153  0.0000E+00  0.0000E+00
    -18.833  0.0000E+00  0.0000E+00
    -18.513  0.0000E+00  0.0000E+00
    -18.194  0.0000E+00  0.2500E+00
    -17.874  0.0000E+00  0.2000E+01
    -17.554  0.0000E+00  0.2000E+01
    -17.234  0.0000E+00  0.2000E+01
    -16.914  0.0000E+00  0.2000E+01
    -16.595  0.0000E+00  0.2000E+01
    -16.275  0.0000E+00  0.2000E+01
    -15.955  0.0000E+00  0.2000E+01
    -15.635  0.0000E+00  0.2000E+01
    -15.316  0.0000E+00  0.2000E+01
    -14.996  0.0000E+00  0.2000E+01
    -14.676  0.0000E+00  0.2000E+01
    -14.356  0.0000E+00  0.2000E+01
    -14.037  0.0000E+00  0.2000E+01
    -13.717  0.0000E+00  0.2000E+01
    -13.397  0.0000E+00  0.2000E+01
    -13.077  0.0000E+00  0.2000E+01
    -12.758  0.0000E+00  0.2000E+01
    -12.438  0.0000E+00  0.2000E+01
    -12.118  0.0000E+00  0.2000E+01
    -11.798  0.0000E+00  0.2000E+01
    -11.478  0.0000E+00  0.2000E+01
    -11.159  0.0000E+00  0.2000E+01
    -10.839  0.0000E+00  0.2000E+01
    -10.519  0.0000E+00  0.2000E+01
    -10.199  0.0000E+00  0.2000E+01
     -9.880  0.0000E+00  0.2000E+01
     -9.560  0.0000E+00  0.2000E+01
     -9.240  0.0000E+00  0.2000E+01
     -8.920  0.0000E+00  0.2000E+01
     -8.601  0.0000E+00  0.2000E+01
     -8.281  0.0000E+00  0.2000E+01
     -7.961  0.0000E+00  0.2000E+01
     -7.641  0.0000E+00  0.2000E+01
     -7.321  0.0000E+00  0.2000E+01
     -7.002  0.0000E+00  0.2000E+01
     -6.682  0.0000E+00  0.2000E+01
     -6.362  0.0000E+00  0.2000E+01
     -6.042  0.0000E+00  0.2000E+01
     -5.723  0.0000E+00  0.2000E+01
     -5.403  0.0000E+00  0.2000E+01
     -5.083  0.6670E+00  0.2500E+01
     -4.763  0.0000E+00  0.3750E+01
     -4.444  0.6950E+00  0.4250E+01
     -4.124  0.0000E+00  0.5528E+01
     -3.804  0.0000E+00  0.7111E+01
     -3.484  0.0000E+00  0.8000E+01
     -3.165  0.0000E+00  0.8000E+01
     -2.845  0.0000E+00  0.8000E+01
     -2.525  0.0000E+00  0.8000E+01
     -2.205  0.0000E+00  0.8000E+01
     -1.885  0.0000E+00  0.8000E+01
     -1.566  0.0000E+00  0.8000E+01
     -1.246  0.0000E+00  0.8000E+01
     -0.926  0.0000E+00  0.8000E+01
     -0.606  0.0000E+00  0.8000E+01
     -0.287  0.0000E+00  0.8000E+01
      0.033  0.0000E+00  0.8000E+01
      0.353  0.0000E+00  0.8000E+01
      0.673  0.0000E+00  0.8000E+01
      0.992  0.0000E+00  0.8000E+01
      1.312  0.0000E+00  0.8000E+01
      1.632  0.0000E+00  0.8000E+01
      1.952  0.0000E+00  0.8000E+01
      2.271  0.0000E+00  0.8000E+01
      2.591  0.0000E+00  0.8000E+01
      2.911  0.0000E+00  0.8000E+01
      3.231  0.0000E+00  0.8000E+01
      3.551  0.0000E+00  0.8009E+01
      3.870  0.0000E+00  0.8009E+01
      4.190  0.0000E+00  0.8009E+01
      4.510  0.0000E+00  0.8139E+01
      4.830  0.0000E+00  0.8139E+01
      5.149  0.0000E+00  0.8139E+01
      5.469  0.0000E+00  0.8250E+01
      5.789  0.0000E+00  0.8574E+01
      6.109  0.0000E+00  0.8667E+01
      6.428  0.0000E+00  0.9111E+01
      6.748  0.0000E+00  0.9667E+01
      7.068  0.0000E+00  0.9806E+01
      7.388  0.5849E+00  0.1021E+02
      7.708  0.0000E+00  0.1075E+02
      8.027  0.0000E+00  0.1119E+02
      8.347  0.0000E+00  0.1186E+02
      8.667  0.0000E+00  0.1205E+02
      8.987  0.0000E+00  0.1269E+02
      9.306  0.0000E+00  0.1360E+02
      9.626  0.0000E+00  0.1379E+02
      9.946  0.0000E+00  0.1396E+02
     10.266  0.0000E+00  0.1458E+02
     10.585  0.6904E+00  0.1519E+02
     10.905  0.0000E+00  0.1553E+02
     11.225  0.0000E+00  0.1586E+02
     11.545  0.0000E+00  0.1586E+02
     11.864  0.0000E+00  0.1631E+02
     12.184  0.0000E+00  0.1656E+02
     12.504  0.0000E+00  0.1703E+02
     12.824  0.0000E+00  0.1734E+02
     13.144  0.1883E-08  0.1790E+02
     13.463  0.0000E+00  0.1856E+02
     13.783  0.0000E+00  0.1863E+02
     14.103  0.0000E+00  0.1869E+02
     14.423  0.4002E-01  0.1896E+02
     14.742  0.0000E+00  0.1964E+02
     15.062  0.0000E+00  0.2042E+02
     15.382  0.0000E+00  0.2125E+02
     15.702  0.0000E+00  0.2236E+02
     16.021  0.0000E+00  0.2253E+02
     16.341  0.0000E+00  0.2267E+02
     16.661  0.0000E+00  0.2297E+02
     16.981  0.0000E+00  0.2297E+02
     17.301  0.0000E+00  0.2382E+02
     17.620  0.0000E+00  0.2438E+02
     17.940  0.0000E+00  0.2475E+02
     18.260  0.0000E+00  0.2533E+02
     18.580  0.5916E-03  0.2589E+02
     18.899  0.0000E+00  0.2656E+02
     19.219  0.0000E+00  0.2706E+02
     19.539  0.0000E+00  0.2750E+02
     19.859  0.0000E+00  0.2806E+02
     20.178  0.0000E+00  0.2856E+02
     20.498  0.0000E+00  0.2881E+02
     20.818  0.0000E+00  0.2932E+02
     21.138  0.0000E+00  0.2946E+02
     21.457  0.0000E+00  0.2994E+02
     21.777  0.0000E+00  0.3017E+02
     22.097  0.0000E+00  0.3089E+02
     22.417  0.0000E+00  0.3100E+02
     22.737  0.5157E-08  0.3172E+02
     23.056  0.0000E+00  0.3246E+02
     23.376  0.3572E-09  0.3280E+02
     23.696  0.0000E+00  0.3362E+02
     24.016  0.0000E+00  0.3431E+02
     24.335  0.0000E+00  0.3476E+02
     24.655  0.0000E+00  0.3530E+02
     24.975  0.0000E+00  0.3593E+02
     25.295  0.0000E+00  0.3648E+02
     25.614  0.6743E+00  0.3690E+02
     25.934  0.0000E+00  0.3794E+02
     26.254  0.1737E+00  0.3832E+02
     26.574  0.0000E+00  0.3878E+02
     26.894  0.0000E+00  0.3924E+02
     27.213  0.0000E+00  0.3941E+02
     27.533  0.0000E+00  0.3985E+02
     27.853  0.0000E+00  0.4010E+02
     28.173  0.0000E+00  0.4073E+02
     28.492  0.0000E+00  0.4195E+02
     28.812  0.0000E+00  0.4301E+02
     29.132  0.0000E+00  0.4345E+02
     29.452  0.1737E+00  0.4375E+02
     29.771  0.0000E+00  0.4468E+02
     30.091  0.0000E+00  0.4551E+02
     30.411  0.0000E+00  0.4619E+02
     30.731  0.0000E+00  0.4628E+02
     31.050  0.0000E+00  0.4670E+02
     31.370  0.0000E+00  0.4706E+02
     31.690  0.0000E+00  0.4753E+02
     32.010  0.0000E+00  0.4827E+02
     32.330  0.0000E+00  0.4875E+02
     32.649  0.0000E+00  0.4938E+02
     32.969  0.0000E+00  0.5008E+02
     33.289  0.0000E+00  0.5121E+02
     33.609  0.0000E+00  0.5150E+02
     33.928  0.0000E+00  0.5218E+02
     34.248  0.0000E+00  0.5340E+02
     34.568  0.0000E+00  0.5340E+02
     34.888  0.0000E+00  0.5445E+02
     35.207  0.0000E+00  0.5499E+02
     35.527  0.0000E+00  0.5551E+02
     35.847  0.0000E+00  0.5595E+02
     36.167  0.0000E+00  0.5623E+02
     36.487  0.0000E+00  0.5653E+02
     36.806  0.0000E+00  0.5747E+02
     37.126  0.0000E+00  0.5772E+02
     37.446  0.0000E+00  0.5862E+02
     37.766  0.0000E+00  0.5992E+02
     38.085  0.3761E-02  0.6036E+02
     38.405  0.2628E-15  0.6118E+02
     38.725  0.0000E+00  0.6236E+02
     39.045  0.0000E+00  0.6336E+02
     39.364  0.2648E-12  0.6380E+02
     39.684  0.0000E+00  0.6454E+02
     40.004  0.0000E+00  0.6476E+02
     40.324  0.0000E+00  0.6509E+02
     40.643  0.5248E-05  0.6578E+02
     40.963  0.0000E+00  0.6643E+02
     41.283  0.0000E+00  0.6702E+02
     41.603  0.2566E-04  0.6724E+02
     41.923  0.0000E+00  0.6771E+02
     42.242  0.0000E+00  0.6871E+02
     42.562  0.0000E+00  0.6960E+02
     42.882  0.0000E+00  0.6996E+02
     43.202  0.0000E+00  0.7043E+02
     43.521  0.1737E+00  0.7169E+02
     43.841  0.1669E-05  0.7263E+02
     44.161  0.6032E-01  0.7332E+02
     44.481  0.0000E+00  0.7405E+02
     44.800  0.6950E+00  0.7530E+02
     45.120  0.5275E+00  0.7617E+02
     45.440  0.0000E+00  0.7700E+02
     45.760  0.1183E-05  0.7700E+02
     46.080  0.6950E+00  0.7827E+02
     46.399  0.0000E+00  0.7873E+02
     46.719  0.0000E+00  0.7923E+02
     47.039  0.8083E+00  0.7993E+02
     47.359  0.0000E+00  0.8048E+02
     47.678  0.6950E+00  0.8112E+02
     47.998  0.0000E+00  0.8162E+02
     48.318  0.0000E+00  0.8225E+02
     48.638  0.0000E+00  0.8271E+02
     48.957  0.0000E+00  0.8361E+02
     49.277  0.0000E+00  0.8389E+02
     49.597  0.0000E+00  0.8476E+02
     49.917  0.5577E-02  0.8634E+02
     50.236  0.0000E+00  0.8737E+02
     50.556  0.1088E-02  0.8804E+02
     50.876  0.0000E+00  0.8928E+02
     51.196  0.0000E+00  0.8931E+02
     51.516  0.3500E-05  0.9019E+02
     51.835  0.0000E+00  0.9138E+02
     52.155  0.0000E+00  0.9194E+02
     52.475  0.0000E+00  0.9242E+02
     52.795  0.0000E+00  0.9313E+02
     53.114  0.0000E+00  0.9380E+02
     53.434  0.0000E+00  0.9507E+02
     53.754  0.0000E+00  0.9547E+02
     54.074  0.6950E+00  0.9646E+02
     54.393  0.4637E+00  0.9731E+02
     54.713  0.0000E+00  0.9769E+02
     55.033  0.0000E+00  0.9861E+02
     55.353  0.1737E+00  0.9953E+02
     55.673  0.0000E+00  0.1001E+03
     55.992  0.0000E+00  0.1008E+03
     56.312  0.4633E+00  0.1011E+03
     56.632  0.0000E+00  0.1019E+03
     56.952  0.0000E+00  0.1022E+03
     57.271  0.0000E+00  0.1032E+03
     57.591  0.1451E+00  0.1042E+03
     57.911  0.0000E+00  0.1053E+03
     58.231  0.0000E+00  0.1064E+03
     58.550  0.0000E+00  0.1070E+03
     58.870  0.0000E+00  0.1084E+03
     59.190  0.0000E+00  0.1089E+03
     59.510  0.0000E+00  0.1099E+03
     59.829  0.0000E+00  0.1104E+03
     60.149  0.0000E+00  0.1114E+03
     60.469  0.0000E+00  0.1119E+03
     60.789  0.3474E+00  0.1129E+03
     61.109  0.0000E+00  0.1133E+03
     61.428  0.0000E+00  0.1144E+03
     61.748  0.0000E+00  0.1154E+03
     62.068  0.0000E+00  0.1162E+03
     62.388  0.0000E+00  0.1171E+03
     62.707  0.4685E-01  0.1179E+03
     63.027  0.0000E+00  0.1183E+03
     63.347  0.0000E+00  0.1191E+03
     63.667  0.0000E+00  0.1205E+03
     63.986  0.0000E+00  0.1209E+03
     64.306  0.0000E+00  0.1209E+03
     64.626  0.6949E+00  0.1220E+03
     64.946  0.6950E+00  0.1231E+03
     65.266  0.0000E+00  0.1241E+03
     65.585  0.3475E+00  0.1249E+03
     65.905  0.1029E-15  0.1256E+03
     66.225  0.0000E+00  0.1268E+03
     66.545  0.0000E+00  0.1272E+03
     66.864  0.0000E+00  0.1276E+03
     67.184  0.0000E+00  0.1278E+03
     67.504  0.0000E+00  0.1279E+03
     67.824  0.0000E+00  0.1279E+03
     68.143  0.0000E+00  0.1279E+03
     68.463  0.0000E+00  0.1279E+03
     68.783  0.0000E+00  0.1279E+03
     69.103  0.0000E+00  0.1280E+03
     69.422  0.0000E+00  0.1280E+03
     69.742  0.0000E+00  0.1280E+03
     70.062  0.0000E+00  0.1280E+03
     70.382  0.0000E+00  0.1280E+03
     70.702  0.0000E+00  0.1280E+03
     71.021  0.0000E+00  0.1280E+03
     71.341  0.0000E+00  0.1280E+03
     71.661  0.0000E+00  0.1280E+03
     71.981  0.0000E+00  0.1280E+03
     72.300  0.0000E+00  0.1280E+03
     72.620  0.0000E+00  0.1280E+03
     72.940  0.0000E+00  0.1280E+03
     73.260  0.0000E+00  0.1280E+03
