 vasp.5.4.4.18Apr17-6-g9f103f2a35 (build Jul 09 2018 16:43:14) complex          
  
 executed on             LinuxIFC date 2018.12.03  23:56:53
 running on   64 total cores
 distrk:  each k-point on   16 cores,    4 groups
 distr:  one band on NCORES_PER_BAND=   8 cores,    2 groups


--------------------------------------------------------------------------------------------------------


 INCAR:
 POTCAR:    PAW_PBE Kr_GW 21Aug2013               

 ----------------------------------------------------------------------------- 
|                                                                             |
|           W    W    AA    RRRRR   N    N  II  N    N   GGGG   !!!           |
|           W    W   A  A   R    R  NN   N  II  NN   N  G    G  !!!           |
|           W    W  A    A  R    R  N N  N  II  N N  N  G       !!!           |
|           W WW W  AAAAAA  RRRRR   N  N N  II  N  N N  G  GGG   !            |
|           WW  WW  A    A  R   R   N   NN  II  N   NN  G    G                |
|           W    W  A    A  R    R  N    N  II  N    N   GGGG   !!!           |
|                                                                             |
|      You have enabled k-point parallelism (KPAR>1).                         |
|      This developmental code was originally  written by Paul Kent at ORNL,  |
|      and carefully double checked in Vienna.                                |
|      GW as well as linear response parallelism added by Martijn Marsman     |
|      and Georg Kresse.                                                      |
|      Carefully verify results versus KPAR=1.                                |
|      Report problems to Paul Kent and Vienna.                               |
|                                                                             |
 ----------------------------------------------------------------------------- 

 POTCAR:    PAW_PBE Kr_GW 21Aug2013               
   VRHFIN =Kr: s2p6                                                             
   LEXCH  = PE                                                                  
   EATOM  =   506.7358 eV,   37.2440 Ry                                         
                                                                                
   TITEL  = PAW_PBE Kr_GW 21Aug2013                                             
   LULTRA =        F    use ultrasoft PP ?                                      
   IUNSCR =        1    unscreen: 0-lin 1-nonlin 2-no                           
   RPACOR =    1.800    partial core radius                                     
   POMASS =   83.800; ZVAL   =    8.000    mass and valenz                      
   RCORE  =    2.300    outmost cutoff radius                                   
   RWIGS  =    2.300; RWIGS  =    1.217    wigner-seitz radius (au A)           
   ENMAX  =  252.232; ENMIN  =  189.174 eV                                      
   ICORE  =        3    local potential                                         
   LCOR   =        T    correct aug charges                                     
   LPAW   =        T    paw PP                                                  
   EAUG   =  554.765                                                            
   DEXC   =    0.000                                                            
   RMAX   =    2.354    core radius for proj-oper                               
   RAUG   =    1.300    factor for augmentation sphere                          
   RDEP   =    2.368    radius for radial grids                                 
   RDEPT  =    1.821    core radius for aug-charge                              
                                                                                
   Atomic configuration                                                         
   10 entries                                                                   
     n  l   j            E        occ.                                          
     1  0  0.50    -14156.5824   2.0000                                         
     2  0  0.50     -1864.1588   2.0000                                         
     2  1  1.50     -1648.0830   6.0000                                         
     3  0  0.50      -263.9350   2.0000                                         
     3  1  1.50      -195.1536   6.0000                                         
     3  2  2.50       -81.3940  10.0000                                         
     4  0  0.50       -23.0477   2.0000                                         
     4  1  0.50        -9.2466   6.0000                                         
     4  2  2.50        -1.3606   0.0000                                         
     4  3  2.50        -1.3606   0.0000                                         
   Description                                                                  
     l       E           TYP  RCUT    TYP  RCUT                                 
     0    -23.0476842     23  1.500                                             
     0     81.6349560     23  1.800                                             
     1     -9.2466308     23  2.200                                             
     1     68.0291300     23  2.200                                             
     2      6.8029130     23  2.200                                             
     2     68.0291300     23  2.200                                             
     3     27.2116520      7  2.300                                             
  local pseudopotential read in
  partial core-charges read in
  partial kinetic energy density read in
  kinetic energy density of atom read in
  atomic valenz-charges read in
  non local Contribution for L=           0  read in
    real space projection operators read in
  non local Contribution for L=           0  read in
    real space projection operators read in
  non local Contribution for L=           1  read in
    real space projection operators read in
  non local Contribution for L=           1  read in
    real space projection operators read in
  non local Contribution for L=           2  read in
    real space projection operators read in
  non local Contribution for L=           2  read in
    real space projection operators read in
    PAW grid and wavefunctions read in
 
   number of l-projection  operators is LMAX  =           6
   number of lm-projection operators is LMMAX =          18
 
  PAW_PBE Kr_GW 21Aug2013               :
 energy of atom  1       EATOM= -506.7358
 kinetic energy error for atom=    0.0279 (will be added to EATOM!!)
 
 
 POSCAR: Kr_FCC                                  
  positions in direct lattice
  velocities in cartesian coordinates
 exchange correlation table for  LEXCH =        8
   RHO(1)=    0.500       N(1)  =     2000
   RHO(2)=  100.500       N(2)  =     4000
 


--------------------------------------------------------------------------------------------------------


 ion  position               nearest neighbor table
   1  0.000  0.000  0.000-
 

IMPORTANT INFORMATION: All symmetrisations will be switched off!
NOSYMM: (Re-)initialisation of all symmetry stuff for point group C_1.

 
 
 KPOINTS: k-points                                

Automatic generation of k-mesh.
Space group operators:
 irot       det(A)        alpha          n_x          n_y          n_z        tau_x        tau_y        tau_z
    1     1.000000     0.000000     1.000000     0.000000     0.000000     0.000000     0.000000     0.000000
 
 Subroutine IBZKPT returns following result:
 ===========================================
 
 Found    216 irreducible k-points:
 
 Following reciprocal coordinates:
            Coordinates               Weight
  0.000000  0.000000  0.000000      1.000000
  0.166667  0.000000  0.000000      1.000000
  0.333333 -0.000000  0.000000      1.000000
  0.500000  0.000000  0.000000      1.000000
 -0.333333  0.000000 -0.000000      1.000000
 -0.166667 -0.000000 -0.000000      1.000000
 -0.000000  0.166667 -0.000000      1.000000
  0.166667  0.166667  0.000000      1.000000
  0.333333  0.166667  0.000000      1.000000
  0.500000  0.166667  0.000000      1.000000
 -0.333333  0.166667 -0.000000      1.000000
 -0.166667  0.166667 -0.000000      1.000000
 -0.000000  0.333333  0.000000      1.000000
  0.166667  0.333333  0.000000      1.000000
  0.333333  0.333333  0.000000      1.000000
  0.500000  0.333333  0.000000      1.000000
 -0.333333  0.333333 -0.000000      1.000000
 -0.166667  0.333333 -0.000000      1.000000
  0.000000  0.500000 -0.000000      1.000000
  0.166667  0.500000  0.000000      1.000000
  0.333333  0.500000  0.000000      1.000000
  0.500000  0.500000  0.000000      1.000000
 -0.333333  0.500000 -0.000000      1.000000
 -0.166667  0.500000 -0.000000      1.000000
  0.000000 -0.333333 -0.000000      1.000000
  0.166667 -0.333333  0.000000      1.000000
  0.333333 -0.333333  0.000000      1.000000
  0.500000 -0.333333  0.000000      1.000000
 -0.333333 -0.333333  0.000000      1.000000
 -0.166667 -0.333333  0.000000      1.000000
  0.000000 -0.166667  0.000000      1.000000
  0.166667 -0.166667  0.000000      1.000000
  0.333333 -0.166667  0.000000      1.000000
  0.500000 -0.166667  0.000000      1.000000
 -0.333333 -0.166667 -0.000000      1.000000
 -0.166667 -0.166667  0.000000      1.000000
  0.000000  0.000000  0.166667      1.000000
  0.166667  0.000000  0.166667      1.000000
  0.333333 -0.000000  0.166667      1.000000
  0.500000  0.000000  0.166667      1.000000
 -0.333333  0.000000  0.166667      1.000000
 -0.166667  0.000000  0.166667      1.000000
 -0.000000  0.166667  0.166667      1.000000
  0.166667  0.166667  0.166667      1.000000
  0.333333  0.166667  0.166667      1.000000
  0.500000  0.166667  0.166667      1.000000
 -0.333333  0.166667  0.166667      1.000000
 -0.166667  0.166667  0.166667      1.000000
 -0.000000  0.333333  0.166667      1.000000
  0.166667  0.333333  0.166667      1.000000
  0.333333  0.333333  0.166667      1.000000
  0.500000  0.333333  0.166667      1.000000
 -0.333333  0.333333  0.166667      1.000000
 -0.166667  0.333333  0.166667      1.000000
  0.000000  0.500000  0.166667      1.000000
  0.166667  0.500000  0.166667      1.000000
  0.333333  0.500000  0.166667      1.000000
  0.500000  0.500000  0.166667      1.000000
 -0.333333  0.500000  0.166667      1.000000
 -0.166667  0.500000  0.166667      1.000000
 -0.000000 -0.333333  0.166667      1.000000
  0.166667 -0.333333  0.166667      1.000000
  0.333333 -0.333333  0.166667      1.000000
  0.500000 -0.333333  0.166667      1.000000
 -0.333333 -0.333333  0.166667      1.000000
 -0.166667 -0.333333  0.166667      1.000000
  0.000000 -0.166667  0.166667      1.000000
  0.166667 -0.166667  0.166667      1.000000
  0.333333 -0.166667  0.166667      1.000000
  0.500000 -0.166667  0.166667      1.000000
 -0.333333 -0.166667  0.166667      1.000000
 -0.166667 -0.166667  0.166667      1.000000
 -0.000000 -0.000000  0.333333      1.000000
  0.166667 -0.000000  0.333333      1.000000
  0.333333 -0.000000  0.333333      1.000000
  0.500000 -0.000000  0.333333      1.000000
 -0.333333  0.000000  0.333333      1.000000
 -0.166667  0.000000  0.333333      1.000000
 -0.000000  0.166667  0.333333      1.000000
  0.166667  0.166667  0.333333      1.000000
  0.333333  0.166667  0.333333      1.000000
  0.500000  0.166667  0.333333      1.000000
 -0.333333  0.166667  0.333333      1.000000
 -0.166667  0.166667  0.333333      1.000000
  0.000000  0.333333  0.333333      1.000000
  0.166667  0.333333  0.333333      1.000000
  0.333333  0.333333  0.333333      1.000000
  0.500000  0.333333  0.333333      1.000000
 -0.333333  0.333333  0.333333      1.000000
 -0.166667  0.333333  0.333333      1.000000
 -0.000000  0.500000  0.333333      1.000000
  0.166667  0.500000  0.333333      1.000000
  0.333333  0.500000  0.333333      1.000000
  0.500000  0.500000  0.333333      1.000000
 -0.333333  0.500000  0.333333      1.000000
 -0.166667  0.500000  0.333333      1.000000
 -0.000000 -0.333333  0.333333      1.000000
  0.166667 -0.333333  0.333333      1.000000
  0.333333 -0.333333  0.333333      1.000000
  0.500000 -0.333333  0.333333      1.000000
 -0.333333 -0.333333  0.333333      1.000000
 -0.166667 -0.333333  0.333333      1.000000
  0.000000 -0.166667  0.333333      1.000000
  0.166667 -0.166667  0.333333      1.000000
  0.333333 -0.166667  0.333333      1.000000
  0.500000 -0.166667  0.333333      1.000000
 -0.333333 -0.166667  0.333333      1.000000
 -0.166667 -0.166667  0.333333      1.000000
  0.000000  0.000000  0.500000      1.000000
  0.166667  0.000000  0.500000      1.000000
  0.333333 -0.000000  0.500000      1.000000
  0.500000 -0.000000  0.500000      1.000000
 -0.333333  0.000000  0.500000      1.000000
 -0.166667 -0.000000  0.500000      1.000000
  0.000000  0.166667  0.500000      1.000000
  0.166667  0.166667  0.500000      1.000000
  0.333333  0.166667  0.500000      1.000000
  0.500000  0.166667  0.500000      1.000000
 -0.333333  0.166667  0.500000      1.000000
 -0.166667  0.166667  0.500000      1.000000
  0.000000  0.333333  0.500000      1.000000
  0.166667  0.333333  0.500000      1.000000
  0.333333  0.333333  0.500000      1.000000
  0.500000  0.333333  0.500000      1.000000
 -0.333333  0.333333  0.500000      1.000000
 -0.166667  0.333333  0.500000      1.000000
 -0.000000  0.500000  0.500000      1.000000
  0.166667  0.500000  0.500000      1.000000
  0.333333  0.500000  0.500000      1.000000
  0.500000  0.500000  0.500000      1.000000
 -0.333333  0.500000  0.500000      1.000000
 -0.166667  0.500000  0.500000      1.000000
  0.000000 -0.333333  0.500000      1.000000
  0.166667 -0.333333  0.500000      1.000000
  0.333333 -0.333333  0.500000      1.000000
  0.500000 -0.333333  0.500000      1.000000
 -0.333333 -0.333333  0.500000      1.000000
 -0.166667 -0.333333  0.500000      1.000000
  0.000000 -0.166667  0.500000      1.000000
  0.166667 -0.166667  0.500000      1.000000
  0.333333 -0.166667  0.500000      1.000000
  0.500000 -0.166667  0.500000      1.000000
 -0.333333 -0.166667  0.500000      1.000000
 -0.166667 -0.166667  0.500000      1.000000
  0.000000  0.000000 -0.333333      1.000000
  0.166667 -0.000000 -0.333333      1.000000
  0.333333 -0.000000 -0.333333      1.000000
  0.500000  0.000000 -0.333333      1.000000
 -0.333333  0.000000 -0.333333      1.000000
 -0.166667  0.000000 -0.333333      1.000000
  0.000000  0.166667 -0.333333      1.000000
  0.166667  0.166667 -0.333333      1.000000
  0.333333  0.166667 -0.333333      1.000000
  0.500000  0.166667 -0.333333      1.000000
 -0.333333  0.166667 -0.333333      1.000000
 -0.166667  0.166667 -0.333333      1.000000
  0.000000  0.333333 -0.333333      1.000000
  0.166667  0.333333 -0.333333      1.000000
  0.333333  0.333333 -0.333333      1.000000
  0.500000  0.333333 -0.333333      1.000000
 -0.333333  0.333333 -0.333333      1.000000
 -0.166667  0.333333 -0.333333      1.000000
 -0.000000  0.500000 -0.333333      1.000000
  0.166667  0.500000 -0.333333      1.000000
  0.333333  0.500000 -0.333333      1.000000
  0.500000  0.500000 -0.333333      1.000000
 -0.333333  0.500000 -0.333333      1.000000
 -0.166667  0.500000 -0.333333      1.000000
  0.000000 -0.333333 -0.333333      1.000000
  0.166667 -0.333333 -0.333333      1.000000
  0.333333 -0.333333 -0.333333      1.000000
  0.500000 -0.333333 -0.333333      1.000000
 -0.333333 -0.333333 -0.333333      1.000000
 -0.166667 -0.333333 -0.333333      1.000000
  0.000000 -0.166667 -0.333333      1.000000
  0.166667 -0.166667 -0.333333      1.000000
  0.333333 -0.166667 -0.333333      1.000000
  0.500000 -0.166667 -0.333333      1.000000
 -0.333333 -0.166667 -0.333333      1.000000
 -0.166667 -0.166667 -0.333333      1.000000
  0.000000 -0.000000 -0.166667      1.000000
  0.166667 -0.000000 -0.166667      1.000000
  0.333333 -0.000000 -0.166667      1.000000
  0.500000  0.000000 -0.166667      1.000000
 -0.333333  0.000000 -0.166667      1.000000
 -0.166667 -0.000000 -0.166667      1.000000
 -0.000000  0.166667 -0.166667      1.000000
  0.166667  0.166667 -0.166667      1.000000
  0.333333  0.166667 -0.166667      1.000000
  0.500000  0.166667 -0.166667      1.000000
 -0.333333  0.166667 -0.166667      1.000000
 -0.166667  0.166667 -0.166667      1.000000
  0.000000  0.333333 -0.166667      1.000000
  0.166667  0.333333 -0.166667      1.000000
  0.333333  0.333333 -0.166667      1.000000
  0.500000  0.333333 -0.166667      1.000000
 -0.333333  0.333333 -0.166667      1.000000
 -0.166667  0.333333 -0.166667      1.000000
 -0.000000  0.500000 -0.166667      1.000000
  0.166667  0.500000 -0.166667      1.000000
  0.333333  0.500000 -0.166667      1.000000
  0.500000  0.500000 -0.166667      1.000000
 -0.333333  0.500000 -0.166667      1.000000
 -0.166667  0.500000 -0.166667      1.000000
  0.000000 -0.333333 -0.166667      1.000000
  0.166667 -0.333333 -0.166667      1.000000
  0.333333 -0.333333 -0.166667      1.000000
  0.500000 -0.333333 -0.166667      1.000000
 -0.333333 -0.333333 -0.166667      1.000000
 -0.166667 -0.333333 -0.166667      1.000000
 -0.000000 -0.166667 -0.166667      1.000000
  0.166667 -0.166667 -0.166667      1.000000
  0.333333 -0.166667 -0.166667      1.000000
  0.500000 -0.166667 -0.166667      1.000000
 -0.333333 -0.166667 -0.166667      1.000000
 -0.166667 -0.166667 -0.166667      1.000000
 
 Following cartesian coordinates:
            Coordinates               Weight
  0.000000  0.000000  0.000000      1.000000
  0.040499 -0.023382 -0.016534      1.000000
  0.080998 -0.046764 -0.033067      1.000000
  0.121497 -0.070146 -0.049601      1.000000
 -0.080998  0.046764  0.033067      1.000000
 -0.040499  0.023382  0.016534      1.000000
  0.000000  0.046764 -0.016534      1.000000
  0.040499  0.023382 -0.033067      1.000000
  0.080998  0.000000 -0.049601      1.000000
  0.121497 -0.023382 -0.066134      1.000000
 -0.080998  0.093528  0.016534      1.000000
 -0.040499  0.070146  0.000000      1.000000
  0.000000  0.093528 -0.033067      1.000000
  0.040499  0.070146 -0.049601      1.000000
  0.080998  0.046764 -0.066134      1.000000
  0.121497  0.023382 -0.082668      1.000000
 -0.080998  0.140292  0.000000      1.000000
 -0.040499  0.116910 -0.016534      1.000000
  0.000000  0.140292 -0.049601      1.000000
  0.040499  0.116910 -0.066134      1.000000
  0.080998  0.093528 -0.082668      1.000000
  0.121497  0.070146 -0.099202      1.000000
 -0.080998  0.187056 -0.016534      1.000000
 -0.040499  0.163674 -0.033067      1.000000
 -0.000000 -0.093528  0.033067      1.000000
  0.040499 -0.116910  0.016534      1.000000
  0.080998 -0.140292 -0.000000      1.000000
  0.121497 -0.163674 -0.016534      1.000000
 -0.080998 -0.046764  0.066134      1.000000
 -0.040499 -0.070146  0.049601      1.000000
 -0.000000 -0.046764  0.016534      1.000000
  0.040499 -0.070146 -0.000000      1.000000
  0.080998 -0.093528 -0.016534      1.000000
  0.121497 -0.116910 -0.033067      1.000000
 -0.080998  0.000000  0.049601      1.000000
 -0.040499 -0.023382  0.033067      1.000000
 -0.000000  0.000000  0.049601      1.000000
  0.040499 -0.023382  0.033067      1.000000
  0.080998 -0.046764  0.016534      1.000000
  0.121497 -0.070146 -0.000000      1.000000
 -0.080998  0.046764  0.082668      1.000000
 -0.040499  0.023382  0.066134      1.000000
 -0.000000  0.046764  0.033067      1.000000
  0.040499  0.023382  0.016534      1.000000
  0.080998  0.000000  0.000000      1.000000
  0.121497 -0.023382 -0.016534      1.000000
 -0.080998  0.093528  0.066134      1.000000
 -0.040499  0.070146  0.049601      1.000000
 -0.000000  0.093528  0.016534      1.000000
  0.040499  0.070146  0.000000      1.000000
  0.080998  0.046764 -0.016534      1.000000
  0.121497  0.023382 -0.033067      1.000000
 -0.080998  0.140292  0.049601      1.000000
 -0.040499  0.116910  0.033067      1.000000
 -0.000000  0.140292  0.000000      1.000000
  0.040499  0.116910 -0.016534      1.000000
  0.080998  0.093528 -0.033067      1.000000
  0.121497  0.070146 -0.049601      1.000000
 -0.080998  0.187056  0.033067      1.000000
 -0.040499  0.163674  0.016534      1.000000
 -0.000000 -0.093528  0.082668      1.000000
  0.040499 -0.116910  0.066134      1.000000
  0.080998 -0.140292  0.049601      1.000000
  0.121497 -0.163674  0.033067      1.000000
 -0.080998 -0.046764  0.115735      1.000000
 -0.040499 -0.070146  0.099202      1.000000
 -0.000000 -0.046764  0.066134      1.000000
  0.040499 -0.070146  0.049601      1.000000
  0.080998 -0.093528  0.033067      1.000000
  0.121497 -0.116910  0.016534      1.000000
 -0.080998  0.000000  0.099202      1.000000
 -0.040499 -0.023382  0.082668      1.000000
 -0.000000  0.000000  0.099202      1.000000
  0.040499 -0.023382  0.082668      1.000000
  0.080998 -0.046764  0.066134      1.000000
  0.121497 -0.070146  0.049601      1.000000
 -0.080998  0.046764  0.132269      1.000000
 -0.040499  0.023382  0.115735      1.000000
 -0.000000  0.046764  0.082668      1.000000
  0.040499  0.023382  0.066134      1.000000
  0.080998  0.000000  0.049601      1.000000
  0.121497 -0.023382  0.033067      1.000000
 -0.080998  0.093528  0.115735      1.000000
 -0.040499  0.070146  0.099202      1.000000
 -0.000000  0.093528  0.066134      1.000000
  0.040499  0.070146  0.049601      1.000000
  0.080998  0.046764  0.033067      1.000000
  0.121497  0.023382  0.016534      1.000000
 -0.080998  0.140292  0.099202      1.000000
 -0.040499  0.116910  0.082668      1.000000
 -0.000000  0.140292  0.049601      1.000000
  0.040499  0.116910  0.033067      1.000000
  0.080998  0.093528  0.016534      1.000000
  0.121497  0.070146  0.000000      1.000000
 -0.080998  0.187056  0.082668      1.000000
 -0.040499  0.163674  0.066134      1.000000
 -0.000000 -0.093528  0.132269      1.000000
  0.040499 -0.116910  0.115735      1.000000
  0.080998 -0.140292  0.099202      1.000000
  0.121497 -0.163674  0.082668      1.000000
 -0.080998 -0.046764  0.165336      1.000000
 -0.040499 -0.070146  0.148802      1.000000
 -0.000000 -0.046764  0.115735      1.000000
  0.040499 -0.070146  0.099202      1.000000
  0.080998 -0.093528  0.082668      1.000000
  0.121497 -0.116910  0.066134      1.000000
 -0.080998  0.000000  0.148802      1.000000
 -0.040499 -0.023382  0.132269      1.000000
 -0.000000  0.000000  0.148802      1.000000
  0.040499 -0.023382  0.132269      1.000000
  0.080998 -0.046764  0.115735      1.000000
  0.121497 -0.070146  0.099202      1.000000
 -0.080998  0.046764  0.181869      1.000000
 -0.040499  0.023382  0.165336      1.000000
 -0.000000  0.046764  0.132269      1.000000
  0.040499  0.023382  0.115735      1.000000
  0.080998  0.000000  0.099202      1.000000
  0.121497 -0.023382  0.082668      1.000000
 -0.080998  0.093528  0.165336      1.000000
 -0.040499  0.070146  0.148802      1.000000
 -0.000000  0.093528  0.115735      1.000000
  0.040499  0.070146  0.099202      1.000000
  0.080998  0.046764  0.082668      1.000000
  0.121497  0.023382  0.066134      1.000000
 -0.080998  0.140292  0.148802      1.000000
 -0.040499  0.116910  0.132269      1.000000
 -0.000000  0.140292  0.099202      1.000000
  0.040499  0.116910  0.082668      1.000000
  0.080998  0.093528  0.066134      1.000000
  0.121497  0.070146  0.049601      1.000000
 -0.080998  0.187056  0.132269      1.000000
 -0.040499  0.163674  0.115735      1.000000
 -0.000000 -0.093528  0.181869      1.000000
  0.040499 -0.116910  0.165336      1.000000
  0.080998 -0.140292  0.148802      1.000000
  0.121497 -0.163674  0.132269      1.000000
 -0.080998 -0.046764  0.214937      1.000000
 -0.040499 -0.070146  0.198403      1.000000
 -0.000000 -0.046764  0.165336      1.000000
  0.040499 -0.070146  0.148802      1.000000
  0.080998 -0.093528  0.132269      1.000000
  0.121497 -0.116910  0.115735      1.000000
 -0.080998  0.000000  0.198403      1.000000
 -0.040499 -0.023382  0.181869      1.000000
  0.000000 -0.000000 -0.099202      1.000000
  0.040499 -0.023382 -0.115735      1.000000
  0.080998 -0.046764 -0.132269      1.000000
  0.121497 -0.070146 -0.148802      1.000000
 -0.080998  0.046764 -0.066134      1.000000
 -0.040499  0.023382 -0.082668      1.000000
  0.000000  0.046764 -0.115735      1.000000
  0.040499  0.023382 -0.132269      1.000000
  0.080998  0.000000 -0.148802      1.000000
  0.121497 -0.023382 -0.165336      1.000000
 -0.080998  0.093528 -0.082668      1.000000
 -0.040499  0.070146 -0.099202      1.000000
  0.000000  0.093528 -0.132269      1.000000
  0.040499  0.070146 -0.148802      1.000000
  0.080998  0.046764 -0.165336      1.000000
  0.121497  0.023382 -0.181869      1.000000
 -0.080998  0.140292 -0.099202      1.000000
 -0.040499  0.116910 -0.115735      1.000000
  0.000000  0.140292 -0.148802      1.000000
  0.040499  0.116910 -0.165336      1.000000
  0.080998  0.093528 -0.181869      1.000000
  0.121497  0.070146 -0.198403      1.000000
 -0.080998  0.187056 -0.115735      1.000000
 -0.040499  0.163674 -0.132269      1.000000
  0.000000 -0.093528 -0.066134      1.000000
  0.040499 -0.116910 -0.082668      1.000000
  0.080998 -0.140292 -0.099202      1.000000
  0.121497 -0.163674 -0.115735      1.000000
 -0.080998 -0.046764 -0.033067      1.000000
 -0.040499 -0.070146 -0.049601      1.000000
  0.000000 -0.046764 -0.082668      1.000000
  0.040499 -0.070146 -0.099202      1.000000
  0.080998 -0.093528 -0.115735      1.000000
  0.121497 -0.116910 -0.132269      1.000000
 -0.080998  0.000000 -0.049601      1.000000
 -0.040499 -0.023382 -0.066134      1.000000
  0.000000 -0.000000 -0.049601      1.000000
  0.040499 -0.023382 -0.066134      1.000000
  0.080998 -0.046764 -0.082668      1.000000
  0.121497 -0.070146 -0.099202      1.000000
 -0.080998  0.046764 -0.016534      1.000000
 -0.040499  0.023382 -0.033067      1.000000
  0.000000  0.046764 -0.066134      1.000000
  0.040499  0.023382 -0.082668      1.000000
  0.080998  0.000000 -0.099202      1.000000
  0.121497 -0.023382 -0.115735      1.000000
 -0.080998  0.093528 -0.033067      1.000000
 -0.040499  0.070146 -0.049601      1.000000
  0.000000  0.093528 -0.082668      1.000000
  0.040499  0.070146 -0.099202      1.000000
  0.080998  0.046764 -0.115735      1.000000
  0.121497  0.023382 -0.132269      1.000000
 -0.080998  0.140292 -0.049601      1.000000
 -0.040499  0.116910 -0.066134      1.000000
  0.000000  0.140292 -0.099202      1.000000
  0.040499  0.116910 -0.115735      1.000000
  0.080998  0.093528 -0.132269      1.000000
  0.121497  0.070146 -0.148802      1.000000
 -0.080998  0.187056 -0.066134      1.000000
 -0.040499  0.163674 -0.082668      1.000000
  0.000000 -0.093528 -0.016534      1.000000
  0.040499 -0.116910 -0.033067      1.000000
  0.080998 -0.140292 -0.049601      1.000000
  0.121497 -0.163674 -0.066134      1.000000
 -0.080998 -0.046764  0.016534      1.000000
 -0.040499 -0.070146 -0.000000      1.000000
  0.000000 -0.046764 -0.033067      1.000000
  0.040499 -0.070146 -0.049601      1.000000
  0.080998 -0.093528 -0.066134      1.000000
  0.121497 -0.116910 -0.082668      1.000000
 -0.080998  0.000000 -0.000000      1.000000
 -0.040499 -0.023382 -0.016534      1.000000
 


--------------------------------------------------------------------------------------------------------




 Dimension of arrays:
   k-points           NKPTS =    216   k-points in BZ     NKDIM =    216   number of bands    NBANDS=    128
   number of dos      NEDOS =    301   number of ions     NIONS =      1
   non local maximal  LDIM  =      6   non local SUM 2l+1 LMDIM =     18
   total plane-waves  NPLWV =  13824
   max r-space proj   IRMAX =      1   max aug-charges    IRDMAX=  76693
   dimension x,y,z NGX =    24 NGY =   24 NGZ =   24
   dimension x,y,z NGXF=    48 NGYF=   48 NGZF=   48
   support grid    NGXF=    96 NGYF=   96 NGZF=   96
   ions per type =               1
   NGX,Y,Z   is equivalent  to a cutoff of   9.95,  9.95,  9.95 a.u.
   NGXF,Y,Z  is equivalent  to a cutoff of  19.90, 19.90, 19.90 a.u.

 SYSTEM =  Og_FCC                                  
 POSCAR =  Kr_FCC                                  

 Startparameter for this run:
   NWRITE =      2    write-flag & timer
   PREC   = accura    normal or accurate (medium, high low for compatibility)
   ISTART =      1    job   : 0-new  1-cont  2-samecut
   ICHARG =      0    charge: 1-file 2-atom 10-const
   ISPIN  =      1    spin polarized calculation?
   LNONCOLLINEAR =      T non collinear calculations
   LSORBIT =      T    spin-orbit coupling
   INIWAV =      1    electr: 0-lowe 1-rand  2-diag
   LASPH  =      F    aspherical Exc in radial PAW
   METAGGA=      F    non-selfconsistent MetaGGA calc.

 Electronic Relaxation 1
   ENCUT  =  300.0 eV  22.05 Ry    4.70 a.u.   5.66  5.66  5.66*2*pi/ulx,y,z
   ENINI  =  300.0     initial cutoff
   ENAUG  =  554.8 eV  augmentation charge cutoff
   NELM   =     50;   NELMIN=  2; NELMDL= -5     # of ELM steps 
   EDIFF  = 0.1E-07   stopping-criterion for ELM
   LREAL  =      F    real-space projection
   NLSPLINE    = F    spline interpolate recip. space projectors
   LCOMPAT=      F    compatible to vasp.4.4
   GGA_COMPAT  = F    GGA compatible to vasp.4.4-vasp.4.6
   LMAXPAW     = -100 max onsite density
   LMAXMIX     =    2 max onsite mixed and CHGCAR
   VOSKOWN=      0    Vosko Wilk Nusair interpolation
   ROPT   =    0.00000
 Ionic relaxation
   EDIFFG = 0.1E-04   stopping-criterion for IOM
   NSW    =      1    number of steps for IOM
   NBLOCK =      1;   KBLOCK =      1    inner block; outer block 
   IBRION =     -1    ionic relax: 0-MD 1-quasi-New 2-CG
   NFREE  =      5    steps in history (QN), initial steepest desc. (CG)
   ISIF   =      3    stress and relaxation
   IWAVPR =     10    prediction:  0-non 1-charg 2-wave 3-comb
   ISYM   =      0    0-nonsym 1-usesym 2-fastsym
   LCORR  =      T    Harris-Foulkes like correction to forces

   POTIM  = 0.1000    time-step for ionic-motion
   TEIN   =    0.0    initial temperature
   TEBEG  =    0.0;   TEEND  =   0.0 temperature during run
   SMASS  =  -3.00    Nose mass-parameter (am)
   estimated Nose-frequenzy (Omega)   =  0.10E-29 period in steps =****** mass=  -0.367E-27a.u.
   SCALEE = 1.0000    scale energy and forces
   NPACO  =    256;   APACO  = 16.0  distance and # of slots for P.C.
   PSTRESS=    0.0 pullay stress

  Mass of Ions in am
   POMASS =  83.80
  Ionic Valenz
   ZVAL   =   8.00
  Atomic Wigner-Seitz radii
   RWIGS  =  -1.00
  virtual crystal weights 
   VCA    =   1.00
   NELECT =       8.0000    total number of electrons
   NUPDOWN=      -1.0000    fix difference up-down

 DOS related values:
   EMIN   =  10.00;   EMAX   =-10.00  energy-range for DOS
   EFERMI =   0.00
   ISMEAR =     0;   SIGMA  =   0.00  broadening in eV -4-tet -1-fermi 0-gaus

 Electronic relaxation 2 (details)
   IALGO  =     90    algorithm
   LDIAG  =      T    sub-space diagonalisation (order eigenvalues)
   LSUBROT=      F    optimize rotation matrix (better conditioning)
   TURBO    =      0    0=normal 1=particle mesh
   IRESTART =      0    0=no restart 2=restart with 2 vectors
   NREBOOT  =      0    no. of reboots
   NMIN     =      0    reboot dimension
   EREF     =   0.00    reference energy to select bands
   IMIX   =      4    mixing-type and parameters
     AMIX     =   0.40;   BMIX     =  1.00
     AMIX_MAG =   1.60;   BMIX_MAG =  1.00
     AMIN     =   0.10
     WC   =   100.;   INIMIX=   1;  MIXPRE=   1;  MAXMIX=  50

 Intra band minimization:
   WEIMIN = 0.0000     energy-eigenvalue tresh-hold
   EBREAK =  0.20E-10  absolut break condition
   DEPER  =   0.30     relativ break condition  

   TIME   =   0.40     timestep for ELM

  volume/ion in A,a.u.               =      45.57       307.54
  Fermi-wavevector in a.u.,A,eV,Ry     =   0.916651  1.732220 11.432294  0.840250
  Thomas-Fermi vector in A             =   2.041531
 
 Write flags
   LWAVE        =      T    write WAVECAR
   LDOWNSAMPLE  =      F    k-point downsampling of WAVECAR
   LCHARG       =      F    write CHGCAR
   LVTOT        =      F    write LOCPOT, total local potential
   LVHAR        =      F    write LOCPOT, Hartree potential only
   LELF         =      F    write electronic localiz. function (ELF)
   LORBIT       =      0    0 simple, 1 ext, 2 COOP (PROOUT), +10 PAW based schemes


 Dipole corrections
   LMONO  =      F    monopole corrections only (constant potential shift)
   LDIPOL =      F    correct potential (dipole corrections)
   IDIPOL =      0    1-x, 2-y, 3-z, 4-all directions 
   EPSILON=  1.0000000 bulk dielectric constant

 Exchange correlation treatment:
   GGA     =    PE    GGA type
   LEXCH   =     8    internal setting for exchange type
   VOSKOWN=      0    Vosko Wilk Nusair interpolation
   LHFCALC =     F    Hartree Fock is set to
   LHFONE  =     F    Hartree Fock one center treatment
   AEXX    =    0.0000 exact exchange contribution

 Linear response parameters
   LEPSILON=     F    determine dielectric tensor
   LRPA    =     F    only Hartree local field effects (RPA)
   LNABLA  =     F    use nabla operator in PAW spheres
   LVEL    =     F    velocity operator in full k-point grid
   LINTERFAST=   F  fast interpolation
   KINTER  =     0    interpolate to denser k-point grid
   CSHIFT  =0.1000    complex shift for real part using Kramers Kronig
   OMEGAMAX=  -1.0    maximum frequency
   DEG_THRESHOLD= 0.2000000E-02 threshold for treating states as degnerate
   RTIME   =   -0.100 relaxation time in fs
  (WPLASMAI=    0.000 imaginary part of plasma frequency in eV, 0.658/RTIME)
   DFIELD  = 0.0000000 0.0000000 0.0000000 field for delta impulse in time
 
 Orbital magnetization related:
   ORBITALMAG=     F  switch on orbital magnetization
   LCHIMAG   =     F  perturbation theory with respect to B field
   DQ        =  0.001000  dq finite difference perturbation B field
   LLRAUG    =     F  two centre corrections for induced B field



--------------------------------------------------------------------------------------------------------


 Static calculation
 charge density and potential will be updated during run
 non collinear spin polarized calculation
 Exact diagonalization
 preconditioned conjugated gradient (Jacobi prec)
    charged. constant during bandupdate  
    band-by band algorithm
 perform sub-space diagonalisation
    after iterative eigenvector-optimisation
 modified Broyden-mixing scheme, WC =      100.0
 initial mixing is a Kerker type mixing with AMIX =  0.4000 and BMIX =      1.0000
 Hartree-type preconditioning will be used
 using additional bands          124
 reciprocal scheme for non local part
 use partial core corrections
 calculate Harris-corrections to forces 
   (improved forces if not selfconsistent)
 use gradient corrections 
 use of overlap-Matrix (Vanderbilt PP)
 Gauss-broadening in eV      SIGMA  =   0.00


--------------------------------------------------------------------------------------------------------


  energy-cutoff  :      300.00
  volume of cell :       45.57
      direct lattice vectors                 reciprocal lattice vectors
     4.009334177  0.000000000  0.000000000     0.249417972 -0.144001533 -0.101824461
     2.004667088  3.472185249 -0.000000000     0.000000000  0.288003067 -0.101824461
     2.004667088  1.157395083  3.273607647    -0.000000000  0.000000000  0.305473382

  length of vectors
     4.009334177  4.009334177  4.009334177     0.305473382  0.305473382  0.305473382


 
 old parameters found on file WAVECAR:
  energy-cutoff  :      300.00
  volume of cell :       45.57
      direct lattice vectors                 reciprocal lattice vectors
     4.009334177  0.000000000  0.000000000     0.249417972 -0.144001533 -0.101824461
     2.004667088  3.472185249 -0.000000000     0.000000000  0.288003067 -0.101824461
     2.004667088  1.157395083  3.273607647    -0.000000000  0.000000000  0.305473382

  length of vectors

 
 k-points in units of 2pi/SCALE and weight: k-points                                
   0.00000000  0.00000000  0.00000000       0.005
   0.04049885 -0.02338202 -0.01653359       0.005
   0.08099770 -0.04676405 -0.03306717       0.005
   0.12149656 -0.07014607 -0.04960076       0.005
  -0.08099770  0.04676405  0.03306717       0.005
  -0.04049885  0.02338202  0.01653359       0.005
   0.00000000  0.04676405 -0.01653359       0.005
   0.04049885  0.02338202 -0.03306717       0.005
   0.08099770  0.00000000 -0.04960076       0.005
   0.12149656 -0.02338202 -0.06613435       0.005
  -0.08099770  0.09352809  0.01653359       0.005
  -0.04049885  0.07014607  0.00000000       0.005
   0.00000000  0.09352809 -0.03306717       0.005
   0.04049885  0.07014607 -0.04960076       0.005
   0.08099770  0.04676405 -0.06613435       0.005
   0.12149656  0.02338202 -0.08266794       0.005
  -0.08099770  0.14029214  0.00000000       0.005
  -0.04049885  0.11691011 -0.01653359       0.005
   0.00000000  0.14029214 -0.04960076       0.005
   0.04049885  0.11691011 -0.06613435       0.005
   0.08099770  0.09352809 -0.08266794       0.005
   0.12149656  0.07014607 -0.09920152       0.005
  -0.08099770  0.18705618 -0.01653359       0.005
  -0.04049885  0.16367416 -0.03306717       0.005
  -0.00000000 -0.09352809  0.03306717       0.005
   0.04049885 -0.11691011  0.01653359       0.005
   0.08099770 -0.14029214 -0.00000000       0.005
   0.12149656 -0.16367416 -0.01653359       0.005
  -0.08099770 -0.04676405  0.06613435       0.005
  -0.04049885 -0.07014607  0.04960076       0.005
  -0.00000000 -0.04676405  0.01653359       0.005
   0.04049885 -0.07014607 -0.00000000       0.005
   0.08099770 -0.09352809 -0.01653359       0.005
   0.12149656 -0.11691011 -0.03306717       0.005
  -0.08099770  0.00000000  0.04960076       0.005
  -0.04049885 -0.02338202  0.03306717       0.005
  -0.00000000  0.00000000  0.04960076       0.005
   0.04049885 -0.02338202  0.03306717       0.005
   0.08099770 -0.04676405  0.01653359       0.005
   0.12149656 -0.07014607 -0.00000000       0.005
  -0.08099770  0.04676405  0.08266794       0.005
  -0.04049885  0.02338202  0.06613435       0.005
  -0.00000000  0.04676405  0.03306717       0.005
   0.04049885  0.02338202  0.01653359       0.005
   0.08099770  0.00000000  0.00000000       0.005
   0.12149656 -0.02338202 -0.01653359       0.005
  -0.08099770  0.09352809  0.06613435       0.005
  -0.04049885  0.07014607  0.04960076       0.005
  -0.00000000  0.09352809  0.01653359       0.005
   0.04049885  0.07014607  0.00000000       0.005
   0.08099770  0.04676405 -0.01653359       0.005
   0.12149656  0.02338202 -0.03306717       0.005
  -0.08099770  0.14029214  0.04960076       0.005
  -0.04049885  0.11691011  0.03306717       0.005
  -0.00000000  0.14029214  0.00000000       0.005
   0.04049885  0.11691011 -0.01653359       0.005
   0.08099770  0.09352809 -0.03306717       0.005
   0.12149656  0.07014607 -0.04960076       0.005
  -0.08099770  0.18705618  0.03306717       0.005
  -0.04049885  0.16367416  0.01653359       0.005
  -0.00000000 -0.09352809  0.08266794       0.005
   0.04049885 -0.11691011  0.06613435       0.005
   0.08099770 -0.14029214  0.04960076       0.005
   0.12149656 -0.16367416  0.03306717       0.005
  -0.08099770 -0.04676405  0.11573511       0.005
  -0.04049885 -0.07014607  0.09920152       0.005
  -0.00000000 -0.04676405  0.06613435       0.005
   0.04049885 -0.07014607  0.04960076       0.005
   0.08099770 -0.09352809  0.03306717       0.005
   0.12149656 -0.11691011  0.01653359       0.005
  -0.08099770  0.00000000  0.09920152       0.005
  -0.04049885 -0.02338202  0.08266794       0.005
  -0.00000000  0.00000000  0.09920152       0.005
   0.04049885 -0.02338202  0.08266794       0.005
   0.08099770 -0.04676405  0.06613435       0.005
   0.12149656 -0.07014607  0.04960076       0.005
  -0.08099770  0.04676405  0.13226870       0.005
  -0.04049885  0.02338202  0.11573511       0.005
  -0.00000000  0.04676405  0.08266794       0.005
   0.04049885  0.02338202  0.06613435       0.005
   0.08099770  0.00000000  0.04960076       0.005
   0.12149656 -0.02338202  0.03306717       0.005
  -0.08099770  0.09352809  0.11573511       0.005
  -0.04049885  0.07014607  0.09920152       0.005
  -0.00000000  0.09352809  0.06613435       0.005
   0.04049885  0.07014607  0.04960076       0.005
   0.08099770  0.04676405  0.03306717       0.005
   0.12149656  0.02338202  0.01653359       0.005
  -0.08099770  0.14029214  0.09920152       0.005
  -0.04049885  0.11691011  0.08266794       0.005
  -0.00000000  0.14029214  0.04960076       0.005
   0.04049885  0.11691011  0.03306717       0.005
   0.08099770  0.09352809  0.01653359       0.005
   0.12149656  0.07014607  0.00000000       0.005
  -0.08099770  0.18705618  0.08266794       0.005
  -0.04049885  0.16367416  0.06613435       0.005
  -0.00000000 -0.09352809  0.13226870       0.005
   0.04049885 -0.11691011  0.11573511       0.005
   0.08099770 -0.14029214  0.09920152       0.005
   0.12149656 -0.16367416  0.08266794       0.005
  -0.08099770 -0.04676405  0.16533587       0.005
  -0.04049885 -0.07014607  0.14880228       0.005
  -0.00000000 -0.04676405  0.11573511       0.005
   0.04049885 -0.07014607  0.09920152       0.005
   0.08099770 -0.09352809  0.08266794       0.005
   0.12149656 -0.11691011  0.06613435       0.005
  -0.08099770  0.00000000  0.14880228       0.005
  -0.04049885 -0.02338202  0.13226870       0.005
  -0.00000000  0.00000000  0.14880228       0.005
   0.04049885 -0.02338202  0.13226870       0.005
   0.08099770 -0.04676405  0.11573511       0.005
   0.12149656 -0.07014607  0.09920152       0.005
  -0.08099770  0.04676405  0.18186946       0.005
  -0.04049885  0.02338202  0.16533587       0.005
  -0.00000000  0.04676405  0.13226870       0.005
   0.04049885  0.02338202  0.11573511       0.005
   0.08099770  0.00000000  0.09920152       0.005
   0.12149656 -0.02338202  0.08266794       0.005
  -0.08099770  0.09352809  0.16533587       0.005
  -0.04049885  0.07014607  0.14880228       0.005
  -0.00000000  0.09352809  0.11573511       0.005
   0.04049885  0.07014607  0.09920152       0.005
   0.08099770  0.04676405  0.08266794       0.005
   0.12149656  0.02338202  0.06613435       0.005
  -0.08099770  0.14029214  0.14880228       0.005
  -0.04049885  0.11691011  0.13226870       0.005
  -0.00000000  0.14029214  0.09920152       0.005
   0.04049885  0.11691011  0.08266794       0.005
   0.08099770  0.09352809  0.06613435       0.005
   0.12149656  0.07014607  0.04960076       0.005
  -0.08099770  0.18705618  0.13226870       0.005
  -0.04049885  0.16367416  0.11573511       0.005
  -0.00000000 -0.09352809  0.18186946       0.005
   0.04049885 -0.11691011  0.16533587       0.005
   0.08099770 -0.14029214  0.14880228       0.005
   0.12149656 -0.16367416  0.13226870       0.005
  -0.08099770 -0.04676405  0.21493663       0.005
  -0.04049885 -0.07014607  0.19840304       0.005
  -0.00000000 -0.04676405  0.16533587       0.005
   0.04049885 -0.07014607  0.14880228       0.005
   0.08099770 -0.09352809  0.13226870       0.005
   0.12149656 -0.11691011  0.11573511       0.005
  -0.08099770  0.00000000  0.19840304       0.005
  -0.04049885 -0.02338202  0.18186946       0.005
   0.00000000 -0.00000000 -0.09920152       0.005
   0.04049885 -0.02338202 -0.11573511       0.005
   0.08099770 -0.04676405 -0.13226870       0.005
   0.12149656 -0.07014607 -0.14880228       0.005
  -0.08099770  0.04676405 -0.06613435       0.005
  -0.04049885  0.02338202 -0.08266794       0.005
   0.00000000  0.04676405 -0.11573511       0.005
   0.04049885  0.02338202 -0.13226870       0.005
   0.08099770  0.00000000 -0.14880228       0.005
   0.12149656 -0.02338202 -0.16533587       0.005
  -0.08099770  0.09352809 -0.08266794       0.005
  -0.04049885  0.07014607 -0.09920152       0.005
   0.00000000  0.09352809 -0.13226870       0.005
   0.04049885  0.07014607 -0.14880228       0.005
   0.08099770  0.04676405 -0.16533587       0.005
   0.12149656  0.02338202 -0.18186946       0.005
  -0.08099770  0.14029214 -0.09920152       0.005
  -0.04049885  0.11691011 -0.11573511       0.005
   0.00000000  0.14029214 -0.14880228       0.005
   0.04049885  0.11691011 -0.16533587       0.005
   0.08099770  0.09352809 -0.18186946       0.005
   0.12149656  0.07014607 -0.19840304       0.005
  -0.08099770  0.18705618 -0.11573511       0.005
  -0.04049885  0.16367416 -0.13226870       0.005
   0.00000000 -0.09352809 -0.06613435       0.005
   0.04049885 -0.11691011 -0.08266794       0.005
   0.08099770 -0.14029214 -0.09920152       0.005
   0.12149656 -0.16367416 -0.11573511       0.005
  -0.08099770 -0.04676405 -0.03306717       0.005
  -0.04049885 -0.07014607 -0.04960076       0.005
   0.00000000 -0.04676405 -0.08266794       0.005
   0.04049885 -0.07014607 -0.09920152       0.005
   0.08099770 -0.09352809 -0.11573511       0.005
   0.12149656 -0.11691011 -0.13226870       0.005
  -0.08099770  0.00000000 -0.04960076       0.005
  -0.04049885 -0.02338202 -0.06613435       0.005
   0.00000000 -0.00000000 -0.04960076       0.005
   0.04049885 -0.02338202 -0.06613435       0.005
   0.08099770 -0.04676405 -0.08266794       0.005
   0.12149656 -0.07014607 -0.09920152       0.005
  -0.08099770  0.04676405 -0.01653359       0.005
  -0.04049885  0.02338202 -0.03306717       0.005
   0.00000000  0.04676405 -0.06613435       0.005
   0.04049885  0.02338202 -0.08266794       0.005
   0.08099770  0.00000000 -0.09920152       0.005
   0.12149656 -0.02338202 -0.11573511       0.005
  -0.08099770  0.09352809 -0.03306717       0.005
  -0.04049885  0.07014607 -0.04960076       0.005
   0.00000000  0.09352809 -0.08266794       0.005
   0.04049885  0.07014607 -0.09920152       0.005
   0.08099770  0.04676405 -0.11573511       0.005
   0.12149656  0.02338202 -0.13226870       0.005
  -0.08099770  0.14029214 -0.04960076       0.005
  -0.04049885  0.11691011 -0.06613435       0.005
   0.00000000  0.14029214 -0.09920152       0.005
   0.04049885  0.11691011 -0.11573511       0.005
   0.08099770  0.09352809 -0.13226870       0.005
   0.12149656  0.07014607 -0.14880228       0.005
  -0.08099770  0.18705618 -0.06613435       0.005
  -0.04049885  0.16367416 -0.08266794       0.005
   0.00000000 -0.09352809 -0.01653359       0.005
   0.04049885 -0.11691011 -0.03306717       0.005
   0.08099770 -0.14029214 -0.04960076       0.005
   0.12149656 -0.16367416 -0.06613435       0.005
  -0.08099770 -0.04676405  0.01653359       0.005
  -0.04049885 -0.07014607 -0.00000000       0.005
   0.00000000 -0.04676405 -0.03306717       0.005
   0.04049885 -0.07014607 -0.04960076       0.005
   0.08099770 -0.09352809 -0.06613435       0.005
   0.12149656 -0.11691011 -0.08266794       0.005
  -0.08099770  0.00000000 -0.00000000       0.005
  -0.04049885 -0.02338202 -0.01653359       0.005
 
 k-points in reciprocal lattice and weights: k-points                                
   0.00000000  0.00000000  0.00000000       0.005
   0.16666667  0.00000000  0.00000000       0.005
   0.33333333 -0.00000000  0.00000000       0.005
   0.50000000  0.00000000  0.00000000       0.005
  -0.33333333  0.00000000 -0.00000000       0.005
  -0.16666667 -0.00000000 -0.00000000       0.005
  -0.00000000  0.16666667 -0.00000000       0.005
   0.16666667  0.16666667  0.00000000       0.005
   0.33333333  0.16666667  0.00000000       0.005
   0.50000000  0.16666667  0.00000000       0.005
  -0.33333333  0.16666667 -0.00000000       0.005
  -0.16666667  0.16666667 -0.00000000       0.005
  -0.00000000  0.33333333  0.00000000       0.005
   0.16666667  0.33333333  0.00000000       0.005
   0.33333333  0.33333333  0.00000000       0.005
   0.50000000  0.33333333  0.00000000       0.005
  -0.33333333  0.33333333 -0.00000000       0.005
  -0.16666667  0.33333333 -0.00000000       0.005
   0.00000000  0.50000000 -0.00000000       0.005
   0.16666667  0.50000000  0.00000000       0.005
   0.33333333  0.50000000  0.00000000       0.005
   0.50000000  0.50000000  0.00000000       0.005
  -0.33333333  0.50000000 -0.00000000       0.005
  -0.16666667  0.50000000 -0.00000000       0.005
   0.00000000 -0.33333333 -0.00000000       0.005
   0.16666667 -0.33333333  0.00000000       0.005
   0.33333333 -0.33333333  0.00000000       0.005
   0.50000000 -0.33333333  0.00000000       0.005
  -0.33333333 -0.33333333  0.00000000       0.005
  -0.16666667 -0.33333333  0.00000000       0.005
   0.00000000 -0.16666667  0.00000000       0.005
   0.16666667 -0.16666667  0.00000000       0.005
   0.33333333 -0.16666667  0.00000000       0.005
   0.50000000 -0.16666667  0.00000000       0.005
  -0.33333333 -0.16666667 -0.00000000       0.005
  -0.16666667 -0.16666667  0.00000000       0.005
   0.00000000  0.00000000  0.16666667       0.005
   0.16666667  0.00000000  0.16666667       0.005
   0.33333333 -0.00000000  0.16666667       0.005
   0.50000000  0.00000000  0.16666667       0.005
  -0.33333333  0.00000000  0.16666667       0.005
  -0.16666667  0.00000000  0.16666667       0.005
  -0.00000000  0.16666667  0.16666667       0.005
   0.16666667  0.16666667  0.16666667       0.005
   0.33333333  0.16666667  0.16666667       0.005
   0.50000000  0.16666667  0.16666667       0.005
  -0.33333333  0.16666667  0.16666667       0.005
  -0.16666667  0.16666667  0.16666667       0.005
  -0.00000000  0.33333333  0.16666667       0.005
   0.16666667  0.33333333  0.16666667       0.005
   0.33333333  0.33333333  0.16666667       0.005
   0.50000000  0.33333333  0.16666667       0.005
  -0.33333333  0.33333333  0.16666667       0.005
  -0.16666667  0.33333333  0.16666667       0.005
   0.00000000  0.50000000  0.16666667       0.005
   0.16666667  0.50000000  0.16666667       0.005
   0.33333333  0.50000000  0.16666667       0.005
   0.50000000  0.50000000  0.16666667       0.005
  -0.33333333  0.50000000  0.16666667       0.005
  -0.16666667  0.50000000  0.16666667       0.005
  -0.00000000 -0.33333333  0.16666667       0.005
   0.16666667 -0.33333333  0.16666667       0.005
   0.33333333 -0.33333333  0.16666667       0.005
   0.50000000 -0.33333333  0.16666667       0.005
  -0.33333333 -0.33333333  0.16666667       0.005
  -0.16666667 -0.33333333  0.16666667       0.005
   0.00000000 -0.16666667  0.16666667       0.005
   0.16666667 -0.16666667  0.16666667       0.005
   0.33333333 -0.16666667  0.16666667       0.005
   0.50000000 -0.16666667  0.16666667       0.005
  -0.33333333 -0.16666667  0.16666667       0.005
  -0.16666667 -0.16666667  0.16666667       0.005
  -0.00000000 -0.00000000  0.33333333       0.005
   0.16666667 -0.00000000  0.33333333       0.005
   0.33333333 -0.00000000  0.33333333       0.005
   0.50000000 -0.00000000  0.33333333       0.005
  -0.33333333  0.00000000  0.33333333       0.005
  -0.16666667  0.00000000  0.33333333       0.005
  -0.00000000  0.16666667  0.33333333       0.005
   0.16666667  0.16666667  0.33333333       0.005
   0.33333333  0.16666667  0.33333333       0.005
   0.50000000  0.16666667  0.33333333       0.005
  -0.33333333  0.16666667  0.33333333       0.005
  -0.16666667  0.16666667  0.33333333       0.005
   0.00000000  0.33333333  0.33333333       0.005
   0.16666667  0.33333333  0.33333333       0.005
   0.33333333  0.33333333  0.33333333       0.005
   0.50000000  0.33333333  0.33333333       0.005
  -0.33333333  0.33333333  0.33333333       0.005
  -0.16666667  0.33333333  0.33333333       0.005
  -0.00000000  0.50000000  0.33333333       0.005
   0.16666667  0.50000000  0.33333333       0.005
   0.33333333  0.50000000  0.33333333       0.005
   0.50000000  0.50000000  0.33333333       0.005
  -0.33333333  0.50000000  0.33333333       0.005
  -0.16666667  0.50000000  0.33333333       0.005
  -0.00000000 -0.33333333  0.33333333       0.005
   0.16666667 -0.33333333  0.33333333       0.005
   0.33333333 -0.33333333  0.33333333       0.005
   0.50000000 -0.33333333  0.33333333       0.005
  -0.33333333 -0.33333333  0.33333333       0.005
  -0.16666667 -0.33333333  0.33333333       0.005
   0.00000000 -0.16666667  0.33333333       0.005
   0.16666667 -0.16666667  0.33333333       0.005
   0.33333333 -0.16666667  0.33333333       0.005
   0.50000000 -0.16666667  0.33333333       0.005
  -0.33333333 -0.16666667  0.33333333       0.005
  -0.16666667 -0.16666667  0.33333333       0.005
   0.00000000  0.00000000  0.50000000       0.005
   0.16666667  0.00000000  0.50000000       0.005
   0.33333333 -0.00000000  0.50000000       0.005
   0.50000000 -0.00000000  0.50000000       0.005
  -0.33333333  0.00000000  0.50000000       0.005
  -0.16666667 -0.00000000  0.50000000       0.005
   0.00000000  0.16666667  0.50000000       0.005
   0.16666667  0.16666667  0.50000000       0.005
   0.33333333  0.16666667  0.50000000       0.005
   0.50000000  0.16666667  0.50000000       0.005
  -0.33333333  0.16666667  0.50000000       0.005
  -0.16666667  0.16666667  0.50000000       0.005
   0.00000000  0.33333333  0.50000000       0.005
   0.16666667  0.33333333  0.50000000       0.005
   0.33333333  0.33333333  0.50000000       0.005
   0.50000000  0.33333333  0.50000000       0.005
  -0.33333333  0.33333333  0.50000000       0.005
  -0.16666667  0.33333333  0.50000000       0.005
  -0.00000000  0.50000000  0.50000000       0.005
   0.16666667  0.50000000  0.50000000       0.005
   0.33333333  0.50000000  0.50000000       0.005
   0.50000000  0.50000000  0.50000000       0.005
  -0.33333333  0.50000000  0.50000000       0.005
  -0.16666667  0.50000000  0.50000000       0.005
   0.00000000 -0.33333333  0.50000000       0.005
   0.16666667 -0.33333333  0.50000000       0.005
   0.33333333 -0.33333333  0.50000000       0.005
   0.50000000 -0.33333333  0.50000000       0.005
  -0.33333333 -0.33333333  0.50000000       0.005
  -0.16666667 -0.33333333  0.50000000       0.005
   0.00000000 -0.16666667  0.50000000       0.005
   0.16666667 -0.16666667  0.50000000       0.005
   0.33333333 -0.16666667  0.50000000       0.005
   0.50000000 -0.16666667  0.50000000       0.005
  -0.33333333 -0.16666667  0.50000000       0.005
  -0.16666667 -0.16666667  0.50000000       0.005
   0.00000000  0.00000000 -0.33333333       0.005
   0.16666667 -0.00000000 -0.33333333       0.005
   0.33333333 -0.00000000 -0.33333333       0.005
   0.50000000  0.00000000 -0.33333333       0.005
  -0.33333333  0.00000000 -0.33333333       0.005
  -0.16666667  0.00000000 -0.33333333       0.005
   0.00000000  0.16666667 -0.33333333       0.005
   0.16666667  0.16666667 -0.33333333       0.005
   0.33333333  0.16666667 -0.33333333       0.005
   0.50000000  0.16666667 -0.33333333       0.005
  -0.33333333  0.16666667 -0.33333333       0.005
  -0.16666667  0.16666667 -0.33333333       0.005
   0.00000000  0.33333333 -0.33333333       0.005
   0.16666667  0.33333333 -0.33333333       0.005
   0.33333333  0.33333333 -0.33333333       0.005
   0.50000000  0.33333333 -0.33333333       0.005
  -0.33333333  0.33333333 -0.33333333       0.005
  -0.16666667  0.33333333 -0.33333333       0.005
  -0.00000000  0.50000000 -0.33333333       0.005
   0.16666667  0.50000000 -0.33333333       0.005
   0.33333333  0.50000000 -0.33333333       0.005
   0.50000000  0.50000000 -0.33333333       0.005
  -0.33333333  0.50000000 -0.33333333       0.005
  -0.16666667  0.50000000 -0.33333333       0.005
   0.00000000 -0.33333333 -0.33333333       0.005
   0.16666667 -0.33333333 -0.33333333       0.005
   0.33333333 -0.33333333 -0.33333333       0.005
   0.50000000 -0.33333333 -0.33333333       0.005
  -0.33333333 -0.33333333 -0.33333333       0.005
  -0.16666667 -0.33333333 -0.33333333       0.005
   0.00000000 -0.16666667 -0.33333333       0.005
   0.16666667 -0.16666667 -0.33333333       0.005
   0.33333333 -0.16666667 -0.33333333       0.005
   0.50000000 -0.16666667 -0.33333333       0.005
  -0.33333333 -0.16666667 -0.33333333       0.005
  -0.16666667 -0.16666667 -0.33333333       0.005
   0.00000000 -0.00000000 -0.16666667       0.005
   0.16666667 -0.00000000 -0.16666667       0.005
   0.33333333 -0.00000000 -0.16666667       0.005
   0.50000000  0.00000000 -0.16666667       0.005
  -0.33333333  0.00000000 -0.16666667       0.005
  -0.16666667 -0.00000000 -0.16666667       0.005
  -0.00000000  0.16666667 -0.16666667       0.005
   0.16666667  0.16666667 -0.16666667       0.005
   0.33333333  0.16666667 -0.16666667       0.005
   0.50000000  0.16666667 -0.16666667       0.005
  -0.33333333  0.16666667 -0.16666667       0.005
  -0.16666667  0.16666667 -0.16666667       0.005
   0.00000000  0.33333333 -0.16666667       0.005
   0.16666667  0.33333333 -0.16666667       0.005
   0.33333333  0.33333333 -0.16666667       0.005
   0.50000000  0.33333333 -0.16666667       0.005
  -0.33333333  0.33333333 -0.16666667       0.005
  -0.16666667  0.33333333 -0.16666667       0.005
  -0.00000000  0.50000000 -0.16666667       0.005
   0.16666667  0.50000000 -0.16666667       0.005
   0.33333333  0.50000000 -0.16666667       0.005
   0.50000000  0.50000000 -0.16666667       0.005
  -0.33333333  0.50000000 -0.16666667       0.005
  -0.16666667  0.50000000 -0.16666667       0.005
   0.00000000 -0.33333333 -0.16666667       0.005
   0.16666667 -0.33333333 -0.16666667       0.005
   0.33333333 -0.33333333 -0.16666667       0.005
   0.50000000 -0.33333333 -0.16666667       0.005
  -0.33333333 -0.33333333 -0.16666667       0.005
  -0.16666667 -0.33333333 -0.16666667       0.005
  -0.00000000 -0.16666667 -0.16666667       0.005
   0.16666667 -0.16666667 -0.16666667       0.005
   0.33333333 -0.16666667 -0.16666667       0.005
   0.50000000 -0.16666667 -0.16666667       0.005
  -0.33333333 -0.16666667 -0.16666667       0.005
  -0.16666667 -0.16666667 -0.16666667       0.005
 
 position of ions in fractional coordinates (direct lattice) 
   0.00000000  0.00000000  0.00000000
 
 position of ions in cartesian coordinates  (Angst):
   0.00000000  0.00000000  0.00000000
 
 Euler angles ALPHA=     0.0000000  BETA=     0.0000000

 transformation matrix from SAXIS to cartesian coordinates
 ---------------------------------------------------------
     1.0000000 m_x     0.0000000 m_y     0.0000000 m_z
     0.0000000 m_x     1.0000000 m_y     0.0000000 m_z
     0.0000000 m_x     0.0000000 m_y     1.0000000 m_z

 transformation matrix from cartesian coordinates to SAXIS
 ---------------------------------------------------------
     1.0000000 m_x     0.0000000 m_y     0.0000000 m_z
     0.0000000 m_x     1.0000000 m_y     0.0000000 m_z
     0.0000000 m_x     0.0000000 m_y     1.0000000 m_z




--------------------------------------------------------------------------------------------------------


 k-point  1 :   0.0000 0.0000 0.0000  plane waves:    1074
 k-point  2 :   0.1667 0.0000 0.0000  plane waves:    1080
 k-point  3 :   0.3333-0.0000 0.0000  plane waves:    1062
 k-point  4 :   0.5000 0.0000 0.0000  plane waves:    1088
 k-point  5 :  -0.3333 0.0000-0.0000  plane waves:    1062
 k-point  6 :  -0.1667-0.0000-0.0000  plane waves:    1080
 k-point  7 :  -0.0000 0.1667-0.0000  plane waves:    1080
 k-point  8 :   0.1667 0.1667 0.0000  plane waves:    1096
 k-point  9 :   0.3333 0.1667 0.0000  plane waves:    1074
 k-point 10 :   0.5000 0.1667 0.0000  plane waves:    1080
 k-point 11 :  -0.3333 0.1667-0.0000  plane waves:    1082
 k-point 12 :  -0.1667 0.1667-0.0000  plane waves:    1074
 k-point 13 :  -0.0000 0.3333 0.0000  plane waves:    1062
 k-point 14 :   0.1667 0.3333 0.0000  plane waves:    1074
 k-point 15 :   0.3333 0.3333 0.0000  plane waves:    1080
 k-point 16 :   0.5000 0.3333 0.0000  plane waves:    1072
 k-point 17 :  -0.3333 0.3333-0.0000  plane waves:    1056
 k-point 18 :  -0.1667 0.3333-0.0000  plane waves:    1082
 k-point 19 :   0.0000 0.5000-0.0000  plane waves:    1088
 k-point 20 :   0.1667 0.5000 0.0000  plane waves:    1080
 k-point 21 :   0.3333 0.5000 0.0000  plane waves:    1072
 k-point 22 :   0.5000 0.5000 0.0000  plane waves:    1048
 k-point 23 :  -0.3333 0.5000-0.0000  plane waves:    1072
 k-point 24 :  -0.1667 0.5000-0.0000  plane waves:    1080
 k-point 25 :   0.0000-0.3333-0.0000  plane waves:    1062
 k-point 26 :   0.1667-0.3333 0.0000  plane waves:    1082
 k-point 27 :   0.3333-0.3333 0.0000  plane waves:    1056
 k-point 28 :   0.5000-0.3333 0.0000  plane waves:    1072
 k-point 29 :  -0.3333-0.3333 0.0000  plane waves:    1080
 k-point 30 :  -0.1667-0.3333 0.0000  plane waves:    1074
 k-point 31 :   0.0000-0.1667 0.0000  plane waves:    1080
 k-point 32 :   0.1667-0.1667 0.0000  plane waves:    1074
 k-point 33 :   0.3333-0.1667 0.0000  plane waves:    1082
 k-point 34 :   0.5000-0.1667 0.0000  plane waves:    1080
 k-point 35 :  -0.3333-0.1667-0.0000  plane waves:    1074
 k-point 36 :  -0.1667-0.1667 0.0000  plane waves:    1096
 k-point 37 :   0.0000 0.0000 0.1667  plane waves:    1080
 k-point 38 :   0.1667 0.0000 0.1667  plane waves:    1096
 k-point 39 :   0.3333-0.0000 0.1667  plane waves:    1074
 k-point 40 :   0.5000 0.0000 0.1667  plane waves:    1080
 k-point 41 :  -0.3333 0.0000 0.1667  plane waves:    1082
 k-point 42 :  -0.1667 0.0000 0.1667  plane waves:    1074
 k-point 43 :  -0.0000 0.1667 0.1667  plane waves:    1096
 k-point 44 :   0.1667 0.1667 0.1667  plane waves:    1080
 k-point 45 :   0.3333 0.1667 0.1667  plane waves:    1074
 k-point 46 :   0.5000 0.1667 0.1667  plane waves:    1082
 k-point 47 :  -0.3333 0.1667 0.1667  plane waves:    1080
 k-point 48 :  -0.1667 0.1667 0.1667  plane waves:    1074
 k-point 49 :  -0.0000 0.3333 0.1667  plane waves:    1074
 k-point 50 :   0.1667 0.3333 0.1667  plane waves:    1074
 k-point 51 :   0.3333 0.3333 0.1667  plane waves:    1074
 k-point 52 :   0.5000 0.3333 0.1667  plane waves:    1070
 k-point 53 :  -0.3333 0.3333 0.1667  plane waves:    1068
 k-point 54 :  -0.1667 0.3333 0.1667  plane waves:    1070
 k-point 55 :   0.0000 0.5000 0.1667  plane waves:    1080
 k-point 56 :   0.1667 0.5000 0.1667  plane waves:    1082
 k-point 57 :   0.3333 0.5000 0.1667  plane waves:    1070
 k-point 58 :   0.5000 0.5000 0.1667  plane waves:    1072
 k-point 59 :  -0.3333 0.5000 0.1667  plane waves:    1068
 k-point 60 :  -0.1667 0.5000 0.1667  plane waves:    1068
 k-point 61 :  -0.0000-0.3333 0.1667  plane waves:    1082
 k-point 62 :   0.1667-0.3333 0.1667  plane waves:    1080
 k-point 63 :   0.3333-0.3333 0.1667  plane waves:    1068
 k-point 64 :   0.5000-0.3333 0.1667  plane waves:    1068
 k-point 65 :  -0.3333-0.3333 0.1667  plane waves:    1072
 k-point 66 :  -0.1667-0.3333 0.1667  plane waves:    1070
 k-point 67 :   0.0000-0.1667 0.1667  plane waves:    1074
 k-point 68 :   0.1667-0.1667 0.1667  plane waves:    1074
 k-point 69 :   0.3333-0.1667 0.1667  plane waves:    1070
 k-point 70 :   0.5000-0.1667 0.1667  plane waves:    1068
 k-point 71 :  -0.3333-0.1667 0.1667  plane waves:    1070
 k-point 72 :  -0.1667-0.1667 0.1667  plane waves:    1074
 k-point 73 :  -0.0000-0.0000 0.3333  plane waves:    1062
 k-point 74 :   0.1667-0.0000 0.3333  plane waves:    1074
 k-point 75 :   0.3333-0.0000 0.3333  plane waves:    1080
 k-point 76 :   0.5000-0.0000 0.3333  plane waves:    1072
 k-point 77 :  -0.3333 0.0000 0.3333  plane waves:    1056
 k-point 78 :  -0.1667 0.0000 0.3333  plane waves:    1082
 k-point 79 :  -0.0000 0.1667 0.3333  plane waves:    1074
 k-point 80 :   0.1667 0.1667 0.3333  plane waves:    1074
 k-point 81 :   0.3333 0.1667 0.3333  plane waves:    1074
 k-point 82 :   0.5000 0.1667 0.3333  plane waves:    1070
 k-point 83 :  -0.3333 0.1667 0.3333  plane waves:    1068
 k-point 84 :  -0.1667 0.1667 0.3333  plane waves:    1070
 k-point 85 :   0.0000 0.3333 0.3333  plane waves:    1080
 k-point 86 :   0.1667 0.3333 0.3333  plane waves:    1074
 k-point 87 :   0.3333 0.3333 0.3333  plane waves:    1062
 k-point 88 :   0.5000 0.3333 0.3333  plane waves:    1082
 k-point 89 :  -0.3333 0.3333 0.3333  plane waves:    1056
 k-point 90 :  -0.1667 0.3333 0.3333  plane waves:    1072
 k-point 91 :  -0.0000 0.5000 0.3333  plane waves:    1072
 k-point 92 :   0.1667 0.5000 0.3333  plane waves:    1070
 k-point 93 :   0.3333 0.5000 0.3333  plane waves:    1082
 k-point 94 :   0.5000 0.5000 0.3333  plane waves:    1080
 k-point 95 :  -0.3333 0.5000 0.3333  plane waves:    1068
 k-point 96 :  -0.1667 0.5000 0.3333  plane waves:    1068
 k-point 97 :  -0.0000-0.3333 0.3333  plane waves:    1056
 k-point 98 :   0.1667-0.3333 0.3333  plane waves:    1068
 k-point 99 :   0.3333-0.3333 0.3333  plane waves:    1056
 k-point ** :   0.5000-0.3333 0.3333  plane waves:    1068
 k-point ** :  -0.3333-0.3333 0.3333  plane waves:    1056
 k-point ** :  -0.1667-0.3333 0.3333  plane waves:    1068
 k-point ** :   0.0000-0.1667 0.3333  plane waves:    1082
 k-point ** :   0.1667-0.1667 0.3333  plane waves:    1070
 k-point ** :   0.3333-0.1667 0.3333  plane waves:    1072
 k-point ** :   0.5000-0.1667 0.3333  plane waves:    1068
 k-point ** :  -0.3333-0.1667 0.3333  plane waves:    1068
 k-point ** :  -0.1667-0.1667 0.3333  plane waves:    1080
 k-point ** :   0.0000 0.0000 0.5000  plane waves:    1088
 k-point ** :   0.1667 0.0000 0.5000  plane waves:    1080
 k-point ** :   0.3333-0.0000 0.5000  plane waves:    1072
 k-point ** :   0.5000-0.0000 0.5000  plane waves:    1048
 k-point ** :  -0.3333 0.0000 0.5000  plane waves:    1072
 k-point ** :  -0.1667-0.0000 0.5000  plane waves:    1080
 k-point ** :   0.0000 0.1667 0.5000  plane waves:    1080
 k-point ** :   0.1667 0.1667 0.5000  plane waves:    1082
 k-point ** :   0.3333 0.1667 0.5000  plane waves:    1070
 k-point ** :   0.5000 0.1667 0.5000  plane waves:    1072
 k-point ** :  -0.3333 0.1667 0.5000  plane waves:    1068
 k-point ** :  -0.1667 0.1667 0.5000  plane waves:    1068
 k-point ** :   0.0000 0.3333 0.5000  plane waves:    1072
 k-point ** :   0.1667 0.3333 0.5000  plane waves:    1070
 k-point ** :   0.3333 0.3333 0.5000  plane waves:    1082
 k-point ** :   0.5000 0.3333 0.5000  plane waves:    1080
 k-point ** :  -0.3333 0.3333 0.5000  plane waves:    1068
 k-point ** :  -0.1667 0.3333 0.5000  plane waves:    1068
 k-point ** :  -0.0000 0.5000 0.5000  plane waves:    1048
 k-point ** :   0.1667 0.5000 0.5000  plane waves:    1072
 k-point ** :   0.3333 0.5000 0.5000  plane waves:    1080
 k-point ** :   0.5000 0.5000 0.5000  plane waves:    1088
 k-point ** :  -0.3333 0.5000 0.5000  plane waves:    1080
 k-point ** :  -0.1667 0.5000 0.5000  plane waves:    1072
 k-point ** :   0.0000-0.3333 0.5000  plane waves:    1072
 k-point ** :   0.1667-0.3333 0.5000  plane waves:    1068
 k-point ** :   0.3333-0.3333 0.5000  plane waves:    1068
 k-point ** :   0.5000-0.3333 0.5000  plane waves:    1080
 k-point ** :  -0.3333-0.3333 0.5000  plane waves:    1082
 k-point ** :  -0.1667-0.3333 0.5000  plane waves:    1070
 k-point ** :   0.0000-0.1667 0.5000  plane waves:    1080
 k-point ** :   0.1667-0.1667 0.5000  plane waves:    1068
 k-point ** :   0.3333-0.1667 0.5000  plane waves:    1068
 k-point ** :   0.5000-0.1667 0.5000  plane waves:    1072
 k-point ** :  -0.3333-0.1667 0.5000  plane waves:    1070
 k-point ** :  -0.1667-0.1667 0.5000  plane waves:    1082
 k-point ** :   0.0000 0.0000-0.3333  plane waves:    1062
 k-point ** :   0.1667-0.0000-0.3333  plane waves:    1082
 k-point ** :   0.3333-0.0000-0.3333  plane waves:    1056
 k-point ** :   0.5000 0.0000-0.3333  plane waves:    1072
 k-point ** :  -0.3333 0.0000-0.3333  plane waves:    1080
 k-point ** :  -0.1667 0.0000-0.3333  plane waves:    1074
 k-point ** :   0.0000 0.1667-0.3333  plane waves:    1082
 k-point ** :   0.1667 0.1667-0.3333  plane waves:    1080
 k-point ** :   0.3333 0.1667-0.3333  plane waves:    1068
 k-point ** :   0.5000 0.1667-0.3333  plane waves:    1068
 k-point ** :  -0.3333 0.1667-0.3333  plane waves:    1072
 k-point ** :  -0.1667 0.1667-0.3333  plane waves:    1070
 k-point ** :   0.0000 0.3333-0.3333  plane waves:    1056
 k-point ** :   0.1667 0.3333-0.3333  plane waves:    1068
 k-point ** :   0.3333 0.3333-0.3333  plane waves:    1056
 k-point ** :   0.5000 0.3333-0.3333  plane waves:    1068
 k-point ** :  -0.3333 0.3333-0.3333  plane waves:    1056
 k-point ** :  -0.1667 0.3333-0.3333  plane waves:    1068
 k-point ** :  -0.0000 0.5000-0.3333  plane waves:    1072
 k-point ** :   0.1667 0.5000-0.3333  plane waves:    1068
 k-point ** :   0.3333 0.5000-0.3333  plane waves:    1068
 k-point ** :   0.5000 0.5000-0.3333  plane waves:    1080
 k-point ** :  -0.3333 0.5000-0.3333  plane waves:    1082
 k-point ** :  -0.1667 0.5000-0.3333  plane waves:    1070
 k-point ** :   0.0000-0.3333-0.3333  plane waves:    1080
 k-point ** :   0.1667-0.3333-0.3333  plane waves:    1072
 k-point ** :   0.3333-0.3333-0.3333  plane waves:    1056
 k-point ** :   0.5000-0.3333-0.3333  plane waves:    1082
 k-point ** :  -0.3333-0.3333-0.3333  plane waves:    1062
 k-point ** :  -0.1667-0.3333-0.3333  plane waves:    1074
 k-point ** :   0.0000-0.1667-0.3333  plane waves:    1074
 k-point ** :   0.1667-0.1667-0.3333  plane waves:    1070
 k-point ** :   0.3333-0.1667-0.3333  plane waves:    1068
 k-point ** :   0.5000-0.1667-0.3333  plane waves:    1070
 k-point ** :  -0.3333-0.1667-0.3333  plane waves:    1074
 k-point ** :  -0.1667-0.1667-0.3333  plane waves:    1074
 k-point ** :   0.0000-0.0000-0.1667  plane waves:    1080
 k-point ** :   0.1667-0.0000-0.1667  plane waves:    1074
 k-point ** :   0.3333-0.0000-0.1667  plane waves:    1082
 k-point ** :   0.5000 0.0000-0.1667  plane waves:    1080
 k-point ** :  -0.3333 0.0000-0.1667  plane waves:    1074
 k-point ** :  -0.1667-0.0000-0.1667  plane waves:    1096
 k-point ** :  -0.0000 0.1667-0.1667  plane waves:    1074
 k-point ** :   0.1667 0.1667-0.1667  plane waves:    1074
 k-point ** :   0.3333 0.1667-0.1667  plane waves:    1070
 k-point ** :   0.5000 0.1667-0.1667  plane waves:    1068
 k-point ** :  -0.3333 0.1667-0.1667  plane waves:    1070
 k-point ** :  -0.1667 0.1667-0.1667  plane waves:    1074
 k-point ** :   0.0000 0.3333-0.1667  plane waves:    1082
 k-point ** :   0.1667 0.3333-0.1667  plane waves:    1070
 k-point ** :   0.3333 0.3333-0.1667  plane waves:    1072
 k-point ** :   0.5000 0.3333-0.1667  plane waves:    1068
 k-point ** :  -0.3333 0.3333-0.1667  plane waves:    1068
 k-point ** :  -0.1667 0.3333-0.1667  plane waves:    1080
 k-point ** :  -0.0000 0.5000-0.1667  plane waves:    1080
 k-point ** :   0.1667 0.5000-0.1667  plane waves:    1068
 k-point ** :   0.3333 0.5000-0.1667  plane waves:    1068
 k-point ** :   0.5000 0.5000-0.1667  plane waves:    1072
 k-point ** :  -0.3333 0.5000-0.1667  plane waves:    1070
 k-point ** :  -0.1667 0.5000-0.1667  plane waves:    1082
 k-point ** :   0.0000-0.3333-0.1667  plane waves:    1074
 k-point ** :   0.1667-0.3333-0.1667  plane waves:    1070
 k-point ** :   0.3333-0.3333-0.1667  plane waves:    1068
 k-point ** :   0.5000-0.3333-0.1667  plane waves:    1070
 k-point ** :  -0.3333-0.3333-0.1667  plane waves:    1074
 k-point ** :  -0.1667-0.3333-0.1667  plane waves:    1074
 k-point ** :  -0.0000-0.1667-0.1667  plane waves:    1096
 k-point ** :   0.1667-0.1667-0.1667  plane waves:    1074
 k-point ** :   0.3333-0.1667-0.1667  plane waves:    1080
 k-point ** :   0.5000-0.1667-0.1667  plane waves:    1082
 k-point ** :  -0.3333-0.1667-0.1667  plane waves:    1074
 k-point ** :  -0.1667-0.1667-0.1667  plane waves:    1080

 maximum and minimum number of plane-waves per node :       156      106

 maximum number of plane-waves:      1096
 maximum index in each direction: 
   IXMAX=    5   IYMAX=    5   IZMAX=    5
   IXMIN=   -6   IYMIN=   -6   IZMIN=   -6


 parallel 3D FFT for wavefunctions:
    minimum data exchange during FFTs selected (reduces bandwidth)
 parallel 3D FFT for charge:
    minimum data exchange during FFTs selected (reduces bandwidth)


 total amount of memory used by VASP MPI-rank0    78794. kBytes
=======================================================================

   base      :      30000. kBytes
   nonl-proj :       2427. kBytes
   fftplans  :       2069. kBytes
   grid      :       1769. kBytes
   one-center:         62. kBytes
   wavefun   :      42467. kBytes
 
     INWAV:  cpu time    5.2972: real time    5.2972
 Broyden mixing: mesh for mixing (old mesh)
   NGX = 11   NGY = 11   NGZ = 11
  (NGX  = 48   NGY  = 48   NGZ  = 48)
  gives a total of   1331 points

 charge density for first step will be calculated from the start-wavefunctions


--------------------------------------------------------------------------------------------------------


 Maximum index for augmentation-charges         4621 (set IRDMAX)


--------------------------------------------------------------------------------------------------------


 initial charge from wavefunction
 First call to EWALD:  gamma=   0.496
 Maximum number of real-space cells 3x 3x 3
 Maximum number of reciprocal cells 3x 3x 3

    FEWALD:  cpu time    0.0031: real time    0.0031


--------------------------------------- Iteration      1(   1)  ---------------------------------------


    POTLOK:  cpu time    0.0196: real time    0.0196
    SETDIJ:  cpu time    0.0193: real time    0.0193

 total amount of memory used by VASP MPI-rank0   442420. kBytes
=======================================================================

   base      :      30000. kBytes
   nonl-proj :       2427. kBytes
   fftplans  :       2069. kBytes
   grid      :       1769. kBytes
   one-center:         62. kBytes
   wavefun   :     406093. kBytes
 
    EDDIAG:  cpu time   72.4312: real time   72.4360
       DOS:  cpu time    0.0347: real time    0.0347
    --------------------------------------------
      LOOP:  cpu time   72.5048: real time   72.5096

 eigenvalue-minimisations  :     0
 total energy-change (2. order) :-0.5464138E-01  ( 0.0000000E+00)
 number of electron       8.0000000 magnetization       0.0000000      0.0000000      0.0000000
 augmentation part       -0.8518269 magnetization      -0.0000001     -0.0000001     -0.0000001

 Free energy of the ion-electron system (eV)
  ---------------------------------------------------
  alpha Z        PSCENC =         9.21045435
  Ewald energy   TEWEN  =      -372.60190661
  -Hartree energ DENC   =      -100.48196601
  -exchange      EXHF   =         0.00000000
  -V(xc)+E(xc)   XCENC  =        14.66668508
  PAW double counting   =       410.04718936     -405.18143692
  entropy T*S    EENTRO =         0.00000000
  eigenvalues    EBANDS =       -62.42151969
  atomic energy  EATOM  =       506.70785905
  Solvation  Ediel_sol  =         0.00000000
  ---------------------------------------------------
  free energy    TOTEN  =        -0.05464138 eV

  energy without entropy =       -0.05464138  energy(sigma->0) =       -0.05464138


--------------------------------------------------------------------------------------------------------




--------------------------------------- Iteration      1(   2)  ---------------------------------------



 total amount of memory used by VASP MPI-rank0   442420. kBytes
=======================================================================

   base      :      30000. kBytes
   nonl-proj :       2427. kBytes
   fftplans  :       2069. kBytes
   grid      :       1769. kBytes
   one-center:         62. kBytes
   wavefun   :     406093. kBytes
 
    EDDIAG:  cpu time   90.8686: real time   90.8775
       DOS:  cpu time    0.0416: real time    0.0416
    --------------------------------------------
      LOOP:  cpu time   90.9102: real time   90.9191

 eigenvalue-minimisations  :     0
 total energy-change (2. order) :-0.2160050E-11  ( 0.0000000E+00)
 number of electron       8.0000000 magnetization       0.0000000      0.0000000      0.0000000
 augmentation part       -0.8518269 magnetization      -0.0000001     -0.0000001     -0.0000001

 Free energy of the ion-electron system (eV)
  ---------------------------------------------------
  alpha Z        PSCENC =         9.21045435
  Ewald energy   TEWEN  =      -372.60190661
  -Hartree energ DENC   =      -100.48196601
  -exchange      EXHF   =         0.00000000
  -V(xc)+E(xc)   XCENC  =        14.66668508
  PAW double counting   =       410.04718936     -405.18143692
  entropy T*S    EENTRO =         0.00000000
  eigenvalues    EBANDS =       -62.42151969
  atomic energy  EATOM  =       506.70785905
  Solvation  Ediel_sol  =         0.00000000
  ---------------------------------------------------
  free energy    TOTEN  =        -0.05464138 eV

  energy without entropy =       -0.05464138  energy(sigma->0) =       -0.05464138


--------------------------------------------------------------------------------------------------------




--------------------------------------- Iteration      1(   3)  ---------------------------------------



 total amount of memory used by VASP MPI-rank0   442420. kBytes
=======================================================================

   base      :      30000. kBytes
   nonl-proj :       2427. kBytes
   fftplans  :       2069. kBytes
   grid      :       1769. kBytes
   one-center:         62. kBytes
   wavefun   :     406093. kBytes
 
    EDDIAG:  cpu time   96.5321: real time   96.5383
       DOS:  cpu time    0.0409: real time    0.0409
    --------------------------------------------
      LOOP:  cpu time   96.5730: real time   96.5792

 eigenvalue-minimisations  :     0
 total energy-change (2. order) : 0.1705303E-11  ( 0.0000000E+00)
 number of electron       8.0000000 magnetization       0.0000000      0.0000000      0.0000000
 augmentation part       -0.8518269 magnetization      -0.0000001     -0.0000001     -0.0000001

 Free energy of the ion-electron system (eV)
  ---------------------------------------------------
  alpha Z        PSCENC =         9.21045435
  Ewald energy   TEWEN  =      -372.60190661
  -Hartree energ DENC   =      -100.48196601
  -exchange      EXHF   =         0.00000000
  -V(xc)+E(xc)   XCENC  =        14.66668508
  PAW double counting   =       410.04718936     -405.18143692
  entropy T*S    EENTRO =         0.00000000
  eigenvalues    EBANDS =       -62.42151969
  atomic energy  EATOM  =       506.70785905
  Solvation  Ediel_sol  =         0.00000000
  ---------------------------------------------------
  free energy    TOTEN  =        -0.05464138 eV

  energy without entropy =       -0.05464138  energy(sigma->0) =       -0.05464138


--------------------------------------------------------------------------------------------------------




--------------------------------------- Iteration      1(   4)  ---------------------------------------



 total amount of memory used by VASP MPI-rank0   442420. kBytes
=======================================================================

   base      :      30000. kBytes
   nonl-proj :       2427. kBytes
   fftplans  :       2069. kBytes
   grid      :       1769. kBytes
   one-center:         62. kBytes
   wavefun   :     406093. kBytes
 
    EDDIAG:  cpu time   88.7437: real time   88.7489
       DOS:  cpu time    0.0417: real time    0.0417
    --------------------------------------------
      LOOP:  cpu time   88.7854: real time   88.7906

 eigenvalue-minimisations  :     0
 total energy-change (2. order) :-0.2614797E-11  ( 0.0000000E+00)
 number of electron       8.0000000 magnetization       0.0000000      0.0000000      0.0000000
 augmentation part       -0.8518269 magnetization      -0.0000001     -0.0000001     -0.0000001

 Free energy of the ion-electron system (eV)
  ---------------------------------------------------
  alpha Z        PSCENC =         9.21045435
  Ewald energy   TEWEN  =      -372.60190661
  -Hartree energ DENC   =      -100.48196601
  -exchange      EXHF   =         0.00000000
  -V(xc)+E(xc)   XCENC  =        14.66668508
  PAW double counting   =       410.04718936     -405.18143692
  entropy T*S    EENTRO =         0.00000000
  eigenvalues    EBANDS =       -62.42151969
[...]
    0.000000    0.000000    0.000000    0.000000   -0.000007   -0.000011   -0.000008
    1.047556    0.000000    0.000000    0.000000   -0.000001   -0.000001   -0.000001
    2.095113    0.000000    0.000000    0.000000   -0.000000   -0.000001   -0.000000
    3.142669    0.000000    0.000000    0.000000   -0.000000   -0.000000   -0.000000
    4.190225    0.000000    0.000000    0.000000   -0.000000   -0.000000   -0.000000
    5.237781    0.000000    0.000000    0.000000   -0.000000   -0.000000   -0.000000
    6.285338    0.000000    0.000000    0.000000   -0.000000   -0.000000   -0.000000
    7.332894    0.000000    0.000000    0.000000   -0.000000   -0.000000   -0.000000
    8.380450    0.000000    0.000000    0.000000   -0.000000   -0.000001   -0.000000
    9.428006    3.339367    3.339368    3.339368   -0.000001   -0.000001   -0.000001
   10.475563    2.588981    2.588981    2.588981   -0.000002   -0.000004   -0.000003
   11.523119    2.140747    2.140752    2.140753   -0.000011   -0.000015   -0.000011
   12.570675    3.925430    3.925430    3.925430   -0.000009   -0.000014   -0.000010
   13.618231    1.521081    1.521081    1.521081   -0.000001   -0.000001   -0.000001
   14.665788    1.710473    1.710475    1.710474   -0.000000   -0.000003   -0.000001
   15.713344    0.276000    0.275999    0.275999    0.000000   -0.000001   -0.000000
   16.760900    0.597708    0.597708    0.597708   -0.000000   -0.000000   -0.000000
   17.808456    1.325366    1.325366    1.325366    0.000000    0.000000    0.000000
   18.856013    0.223163    0.223163    0.223163    0.000000    0.000000    0.000000
   19.903569    2.241845    2.241845    2.241845    0.000001    0.000002    0.000001
   20.951125    0.009223    0.009223    0.009223    0.000000    0.000001    0.000000
   21.998681    0.290309    0.290309    0.290309    0.000000    0.000000    0.000000
   23.046238    0.752461    0.752461    0.752461   -0.000000   -0.000000   -0.000000
   24.093794    0.180267    0.180268    0.180268   -0.000000    0.000000   -0.000000
   25.141350    0.002858    0.002858    0.002858   -0.000000   -0.000000   -0.000000
   26.188906    0.294802    0.294802    0.294802   -0.000000   -0.000000   -0.000000
   27.236463    0.162139    0.162139    0.162139    0.000000    0.000000    0.000000
   28.284019    0.105554    0.105554    0.105554   -0.000000   -0.000000   -0.000000
   29.331575    0.051546    0.051546    0.051546    0.000000    0.000000    0.000000
   30.379131    0.043737    0.043737    0.043737    0.000000    0.000000    0.000000
   31.426688    0.018867    0.018867    0.018867    0.000000    0.000000    0.000000
   32.474244    0.101363    0.101363    0.101363    0.000000    0.000000    0.000000
   33.521800    0.120641    0.120641    0.120641    0.000000    0.000000    0.000000
   34.569356    0.030165    0.030165    0.030165    0.000000    0.000000    0.000000
   35.616913    0.099361    0.099361    0.099361    0.000000    0.000000    0.000000
   36.664469    0.038257    0.038257    0.038257    0.000000    0.000000    0.000000
   37.712025    0.031827    0.031827    0.031827    0.000000    0.000000    0.000000
   38.759581    0.036865    0.036865    0.036865   -0.000000   -0.000001   -0.000000
   39.807138    0.016102    0.016102    0.016102    0.000000    0.000000    0.000000
   40.854694    0.020776    0.020776    0.020776    0.000000    0.000000    0.000000
   41.902250    0.026240    0.026240    0.026240    0.000000    0.000000    0.000000
   42.949807    0.019472    0.019472    0.019472   -0.000000   -0.000000   -0.000000
   43.997363    0.008912    0.008912    0.008912    0.000000    0.000000    0.000000
   45.044919    0.005288    0.005288    0.005288    0.000000    0.000000    0.000000
   46.092475    0.009379    0.009379    0.009379   -0.000000   -0.000000   -0.000000
   47.140032    0.014036    0.014036    0.014036   -0.000000   -0.000000   -0.000000
   48.187588    0.013819    0.013819    0.013819   -0.000000   -0.000000   -0.000000
   49.235144    0.001284    0.001284    0.001284    0.000000    0.000000    0.000000
   50.282700    0.006663    0.006663    0.006663   -0.000000   -0.000000   -0.000000
   51.330257    0.001276    0.001276    0.001276   -0.000000   -0.000000   -0.000000
   52.377813    0.004380    0.004380    0.004380    0.000000   -0.000000    0.000000
   53.425369    0.003927    0.003927    0.003927    0.000000    0.000000    0.000000
   54.472925    0.001964    0.001964    0.001964   -0.000000   -0.000000   -0.000000
   55.520482    0.001290    0.001290    0.001290   -0.000000   -0.000000   -0.000000
   56.568038    0.003654    0.003654    0.003654    0.000000    0.000000    0.000000
   57.615594    0.006617    0.006617    0.006617   -0.000000   -0.000000   -0.000000
   58.663150    0.000000    0.000000    0.000000   -0.000000   -0.000000   -0.000000
   59.710707    0.004867    0.004867    0.004867   -0.000000   -0.000000   -0.000000
   60.758263    0.003309    0.003309    0.003309   -0.000000   -0.000000   -0.000000
   61.805819    0.005952    0.005952    0.005952   -0.000000   -0.000000   -0.000000
   62.853375    0.003066    0.003066    0.003066    0.000000    0.000000    0.000000
   63.900932    0.001365    0.001365    0.001365   -0.000000   -0.000000   -0.000000
   64.948488    0.001159    0.001159    0.001159    0.000000    0.000000    0.000000
   65.996044    0.002813    0.002813    0.002813   -0.000000   -0.000000   -0.000000
   67.043600    0.000679    0.000679    0.000679   -0.000000   -0.000000   -0.000000
   68.091157    0.002351    0.002351    0.002351   -0.000000   -0.000000   -0.000000
   69.138713    0.000026    0.000026    0.000026   -0.000000   -0.000000   -0.000000
   70.186269    0.000006    0.000006    0.000006    0.000000   -0.000000    0.000000
   71.233825    0.002609    0.002609    0.002609   -0.000000   -0.000000   -0.000000
   72.281382    0.000691    0.000691    0.000691   -0.000000   -0.000000   -0.000000
   73.328938    0.000008    0.000008    0.000008   -0.000000   -0.000000   -0.000000
   74.376494    0.000000    0.000000    0.000000   -0.000000   -0.000000   -0.000000
   75.424050    0.000770    0.000770    0.000770   -0.000000   -0.000000   -0.000000
   76.471607    0.001620    0.001620    0.001620   -0.000000   -0.000000   -0.000000
   77.519163    0.000084    0.000084    0.000084   -0.000000   -0.000000   -0.000000
   78.566719    0.000017    0.000017    0.000017   -0.000000   -0.000000   -0.000000
   79.614276    0.001555    0.001555    0.001555   -0.000000   -0.000000   -0.000000
   80.661832    0.000010    0.000010    0.000010    0.000000    0.000000    0.000000
   81.709388    0.002408    0.002408    0.002408   -0.000000   -0.000000   -0.000000
   82.756944    0.001434    0.001434    0.001434   -0.000000   -0.000000   -0.000000
   83.804501    0.000602    0.000602    0.000602   -0.000000   -0.000000   -0.000000
   84.852057    0.000151    0.000151    0.000151   -0.000000   -0.000000   -0.000000
   85.899613    0.000000    0.000000    0.000000   -0.000000   -0.000000   -0.000000
   86.947169    0.000097    0.000097    0.000097   -0.000000   -0.000000   -0.000000
   87.994726    0.000000    0.000000    0.000000    0.000000    0.000000    0.000000
   89.042282    0.000000    0.000000    0.000000    0.000000    0.000000    0.000000
   90.089838    0.000000    0.000000    0.000000    0.000000    0.000000    0.000000
   91.137394    0.000000    0.000000    0.000000    0.000000    0.000000    0.000000
   92.184951    0.000000    0.000000    0.000000    0.000000    0.000000    0.000000
   93.232507    0.000000    0.000000    0.000000    0.000000    0.000000    0.000000
   94.280063    0.000000    0.000000    0.000000    0.000000    0.000000    0.000000
   95.327619    0.000000    0.000000    0.000000    0.000000    0.000000    0.000000
   96.375176    0.000000    0.000000    0.000000    0.000000    0.000000    0.000000
   97.422732    0.000000    0.000000    0.000000    0.000000    0.000000    0.000000
   98.470288    0.000000    0.000000    0.000000    0.000000    0.000000    0.000000
   99.517844    0.000000    0.000000    0.000000    0.000000    0.000000    0.000000
  100.565401    0.000000    0.000000    0.000000    0.000000    0.000000    0.000000
  101.612957    0.000000    0.000000    0.000000    0.000000    0.000000    0.000000
  102.660513    0.000000    0.000000    0.000000    0.000000    0.000000    0.000000
  103.708069    0.000000    0.000000    0.000000    0.000000    0.000000    0.000000

  frequency dependent      REAL DIELECTRIC FUNCTION (independent particle, no local field effects) current-current (2nd set in vasprun.xml)
     E(ev)        X           Y           Z          XY          YZ          ZX
  --------------------------------------------------------------------------------------------------------------
    0.000000    2.165224    2.165224    2.165224   -0.000000    0.000000   -0.000000
    1.047556    2.173859    2.173859    2.173859   -0.000000    0.000000   -0.000000
    2.095113    2.201046    2.201046    2.201046   -0.000000    0.000000   -0.000000
    3.142669    2.250074    2.250074    2.250074   -0.000000    0.000000   -0.000000
    4.190225    2.328174    2.328174    2.328174   -0.000000    0.000000   -0.000000
    5.237781    2.450804    2.450804    2.450804   -0.000000    0.000000   -0.000000
    6.285338    2.660373    2.660373    2.660373   -0.000000   -0.000000   -0.000000
    7.332894    3.011191    3.011191    3.011191   -0.000000   -0.000000   -0.000000
    8.380450    2.998836    2.998836    2.998836   -0.000000   -0.000000   -0.000000
    9.428006    3.803104    3.803104    3.803104   -0.000000   -0.000000   -0.000000
   10.475563    3.090363    3.090362    3.090362    0.000000    0.000001    0.000001
   11.523119    3.405159    3.405158    3.405158   -0.000003   -0.000007   -0.000004
   12.570675    1.520868    1.520868    1.520868   -0.000006   -0.000010   -0.000007
   13.618231    0.461315    0.461315    0.461315   -0.000000   -0.000000   -0.000000
   14.665788   -0.496267   -0.496268   -0.496267    0.000000   -0.000004   -0.000000
   15.713344    0.209395    0.209395    0.209395    0.000000    0.000001    0.000000
   16.760900    0.057411    0.057411    0.057410    0.000000   -0.000000   -0.000000
   17.808456    0.136836    0.136836    0.136836   -0.000000   -0.000000   -0.000000
   18.856013    0.466802    0.466802    0.466802   -0.000000   -0.000000   -0.000000
   19.903569   -0.272920   -0.272920   -0.272920   -0.000001   -0.000001   -0.000001
   20.951125   -0.120193   -0.120193   -0.120193    0.000000    0.000000    0.000000
   21.998681    0.320949    0.320949    0.320949   -0.000000   -0.000000   -0.000000
   23.046238    0.297187    0.297187    0.297187    0.000000    0.000000    0.000000
   24.093794    0.288357    0.288357    0.288357    0.000000   -0.000000    0.000000
   25.141350    0.446030    0.446030    0.446030   -0.000000   -0.000000   -0.000000
   26.188906    0.571896    0.571896    0.571896    0.000000    0.000000    0.000000
   27.236463    0.570994    0.570994    0.570994    0.000000    0.000000    0.000000
   28.284019    0.644407    0.644407    0.644407   -0.000000   -0.000000   -0.000000
   29.331575    0.603051    0.603051    0.603051   -0.000000   -0.000000   -0.000000
   30.379131    0.598298    0.598298    0.598298   -0.000000   -0.000000   -0.000000
   31.426688    0.679864    0.679864    0.679864   -0.000000   -0.000000   -0.000000
   32.474244    0.716293    0.716293    0.716293   -0.000000   -0.000000   -0.000000
   33.521800    0.729251    0.729251    0.729251    0.000000    0.000000    0.000000
   34.569356    0.743981    0.743981    0.743981   -0.000000   -0.000000   -0.000000
   35.616913    0.762249    0.762249    0.762249    0.000000    0.000000    0.000000
   36.664469    0.787143    0.787143    0.787143    0.000000    0.000000    0.000000
   37.712025    0.786677    0.786677    0.786677    0.000000    0.000000    0.000000
   38.759581    0.806469    0.806469    0.806469   -0.000000   -0.000001   -0.000000
   39.807138    0.810436    0.810436    0.810436    0.000000    0.000000    0.000000
   40.854694    0.834140    0.834140    0.834140    0.000000    0.000000    0.000000
   41.902250    0.846267    0.846267    0.846267    0.000000   -0.000000    0.000000
   42.949807    0.844052    0.844052    0.844052   -0.000000   -0.000000   -0.000000
   43.997363    0.850368    0.850368    0.850368    0.000000    0.000000    0.000000
   45.044919    0.861820    0.861820    0.861820   -0.000000   -0.000000   -0.000000
   46.092475    0.874296    0.874296    0.874296   -0.000000    0.000000   -0.000000
   47.140032    0.884433    0.884433    0.884433   -0.000000   -0.000000   -0.000000
   48.187588    0.881799    0.881799    0.881799   -0.000000   -0.000000   -0.000000
   49.235144    0.885597    0.885597    0.885597    0.000000    0.000000    0.000000
   50.282700    0.892864    0.892864    0.892864    0.000000    0.000000    0.000000
   51.330257    0.894967    0.894967    0.894967   -0.000000   -0.000000   -0.000000
   52.377813    0.901806    0.901806    0.901806    0.000000    0.000000    0.000000
   53.425369    0.906614    0.906614    0.906614    0.000000    0.000000    0.000000
   54.472925    0.910838    0.910838    0.910838   -0.000000   -0.000000   -0.000000
   55.520482    0.916879    0.916879    0.916879    0.000000   -0.000000    0.000000
   56.568038    0.917563    0.917563    0.917563   -0.000000    0.000000   -0.000000
   57.615594    0.920929    0.920929    0.920929    0.000000    0.000000    0.000000
   58.663150    0.923533    0.923533    0.923533   -0.000000   -0.000000   -0.000000
   59.710707    0.925774    0.925774    0.925774   -0.000000   -0.000000   -0.000000
   60.758263    0.928345    0.928345    0.928345    0.000000   -0.000000   -0.000000
   61.805819    0.932995    0.932995    0.932995    0.000000    0.000000    0.000000
   62.853375    0.935232    0.935232    0.935232   -0.000000   -0.000000   -0.000000
   63.900932    0.937026    0.937026    0.937026    0.000000    0.000000    0.000000
   64.948488    0.939733    0.939733    0.939733    0.000000    0.000000    0.000000
   65.996044    0.941263    0.941263    0.941263    0.000000    0.000000   -0.000000
   67.043600    0.941647    0.941647    0.941647   -0.000000   -0.000000   -0.000000
   68.091157    0.942872    0.942872    0.942872    0.000000   -0.000000    0.000000
   69.138713    0.944413    0.944413    0.944413   -0.000000   -0.000000   -0.000000
   70.186269    0.946166    0.946166    0.946166   -0.000000   -0.000000   -0.000000
   71.233825    0.948279    0.948279    0.948279   -0.000000   -0.000000   -0.000000
   72.281382    0.950050    0.950050    0.950050    0.000000    0.000000    0.000000
   73.328938    0.952368    0.952368    0.952368   -0.000000   -0.000000   -0.000000
   74.376494    0.954199    0.954199    0.954199    0.000000   -0.000000   -0.000000
   75.424050    0.956080    0.956080    0.956080    0.000000    0.000000    0.000000
   76.471607    0.955450    0.955450    0.955450    0.000000    0.000000    0.000000
   77.519163    0.957478    0.957478    0.957478   -0.000000   -0.000000   -0.000000
   78.566719    0.958220    0.958220    0.958220    0.000000   -0.000000   -0.000000
   79.614276    0.959782    0.959782    0.959782    0.000000   -0.000000    0.000000
   80.661832    0.960752    0.960752    0.960752    0.000000    0.000000    0.000000
   81.709388    0.961977    0.961977    0.961977    0.000000    0.000000    0.000000
   82.756944    0.963615    0.963615    0.963615   -0.000000   -0.000000   -0.000000
   83.804501    0.963597    0.963597    0.963597    0.000000    0.000000    0.000000
   84.852057    0.964044    0.964044    0.964044    0.000000   -0.000000    0.000000
   85.899613    0.965421    0.965421    0.965421    0.000000    0.000000    0.000000
   86.947169    0.966493    0.966493    0.966493    0.000000    0.000000    0.000000
   87.994726    0.967355    0.967355    0.967355    0.000000   -0.000000    0.000000
   89.042282    0.968234    0.968234    0.968234    0.000000   -0.000000    0.000000
   90.089838    0.969057    0.969057    0.969057    0.000000   -0.000000    0.000000
   91.137394    0.969838    0.969838    0.969838    0.000000   -0.000000    0.000000
   92.184951    0.970584    0.970584    0.970584    0.000000   -0.000000    0.000000
   93.232507    0.971297    0.971297    0.971297    0.000000   -0.000000    0.000000
   94.280063    0.971982    0.971982    0.971982    0.000000   -0.000000    0.000000
   95.327619    0.972640    0.972640    0.972640    0.000000   -0.000000    0.000000
   96.375176    0.973273    0.973273    0.973273    0.000000   -0.000000    0.000000
   97.422732    0.973883    0.973883    0.973883    0.000000   -0.000000    0.000000
   98.470288    0.974470    0.974470    0.974470    0.000000   -0.000000    0.000000
   99.517844    0.975037    0.975037    0.975037    0.000000   -0.000000    0.000000
  100.565401    0.975584    0.975584    0.975584    0.000000   -0.000000    0.000000
  101.612957    0.976113    0.976113    0.976113    0.000000   -0.000000    0.000000
  102.660513    0.976624    0.976624    0.976624    0.000000   -0.000000    0.000000
  103.708069    0.977118    0.977118    0.977118    0.000000   -0.000000    0.000000
 
 The outermost node in the dielectric function lies at epsilon=  21.1


--------------------------------------------------------------------------------------------------------


    OPTICS:  cpu time    0.4389: real time    0.4895
    4ORBIT:  cpu time    0.0000: real time    0.0000

 Spin-Orbit-Coupling matrix elements

 Ion:    1  E_soc:     -0.0805099
 l=   1
     0.0000000    -0.0134179    -0.0134179
    -0.0134179     0.0000000    -0.0134179
    -0.0134179    -0.0134179     0.0000000
 l=   2
     0.0000000    -0.0000001     0.0000000    -0.0000001    -0.0000003
    -0.0000001     0.0000000    -0.0000003    -0.0000001    -0.0000001
     0.0000000    -0.0000003     0.0000000    -0.0000003     0.0000000
    -0.0000001    -0.0000001    -0.0000003     0.0000000    -0.0000001
    -0.0000003    -0.0000001     0.0000000    -0.0000001     0.0000000
 l=   3
     0.0000000     0.0000000     0.0000000     0.0000000     0.0000000     0.0000000     0.0000000
     0.0000000     0.0000000     0.0000000     0.0000000     0.0000000     0.0000000     0.0000000
     0.0000000     0.0000000     0.0000000     0.0000000     0.0000000     0.0000000     0.0000000
     0.0000000     0.0000000     0.0000000     0.0000000     0.0000000     0.0000000     0.0000000
     0.0000000     0.0000000     0.0000000     0.0000000     0.0000000     0.0000000     0.0000000
     0.0000000     0.0000000     0.0000000     0.0000000     0.0000000     0.0000000     0.0000000
     0.0000000     0.0000000     0.0000000     0.0000000     0.0000000     0.0000000     0.0000000

 total amount of memory used by VASP MPI-rank0    78794. kBytes
=======================================================================

   base      :      30000. kBytes
   nonl-proj :       2427. kBytes
   fftplans  :       2069. kBytes
   grid      :       1769. kBytes
   one-center:         62. kBytes
   wavefun   :      42467. kBytes
 
  
  
 General timing and accounting informations for this job:
 ========================================================
  
                  Total CPU time used (sec):      553.530
                            User time (sec):      549.604
                          System time (sec):        3.926
                         Elapsed time (sec):      554.302
  
                   Maximum memory used (kb):      492916.
                   Average memory used (kb):           0.
  
                          Minor page faults:        76178
                          Major page faults:            0
                 Voluntary context switches:         1638
