   1   1   0   0
  0.6083477E+02  0.4414576E-09  0.4414576E-09  0.4414576E-09  0.1000000E-15
  1.000000000000000E-004
  CAR 
 Og_FCC                                  
     55.67575212    -55.85215845  301     -2.87640093      1.00000000
    -55.852  0.0000E+00  0.0000E+00
    -55.480  0.0000E+00  0.0000E+00
    -55.109  0.0000E+00  0.0000E+00
    -54.737  0.0000E+00  0.0000E+00
    -54.365  0.0000E+00  0.0000E+00
    -53.993  0.0000E+00  0.0000E+00
    -53.622  0.0000E+00  0.0000E+00
    -53.250  0.0000E+00  0.0000E+00
    -52.878  0.0000E+00  0.0000E+00
    -52.506  0.0000E+00  0.0000E+00
    -52.135  0.0000E+00  0.0000E+00
    -51.763  0.0000E+00  0.0000E+00
    -51.391  0.0000E+00  0.0000E+00
    -51.019  0.0000E+00  0.0000E+00
    -50.648  0.0000E+00  0.4000E+01
    -50.276  0.0000E+00  0.4000E+01
    -49.904  0.0000E+00  0.4000E+01
    -49.532  0.0000E+00  0.4000E+01
    -49.160  0.0000E+00  0.4000E+01
    -48.789  0.0000E+00  0.4000E+01
    -48.417  0.0000E+00  0.4000E+01
    -48.045  0.0000E+00  0.4000E+01
    -47.673  0.0000E+00  0.4000E+01
    -47.302  0.0000E+00  0.4000E+01
    -46.930  0.0000E+00  0.4000E+01
    -46.558  0.0000E+00  0.4000E+01
    -46.186  0.0000E+00  0.4000E+01
    -45.815  0.0000E+00  0.1000E+02
    -45.443  0.0000E+00  0.1000E+02
    -45.071  0.0000E+00  0.1000E+02
    -44.699  0.0000E+00  0.1000E+02
    -44.328  0.0000E+00  0.1000E+02
    -43.956  0.0000E+00  0.1000E+02
    -43.584  0.0000E+00  0.1000E+02
    -43.212  0.0000E+00  0.1000E+02
    -42.841  0.0000E+00  0.1000E+02
    -42.469  0.0000E+00  0.1000E+02
    -42.097  0.0000E+00  0.1000E+02
    -41.725  0.0000E+00  0.1000E+02
    -41.354  0.0000E+00  0.1000E+02
    -40.982  0.0000E+00  0.1000E+02
    -40.610  0.0000E+00  0.1000E+02
    -40.238  0.0000E+00  0.1000E+02
    -39.866  0.0000E+00  0.1000E+02
    -39.495  0.0000E+00  0.1000E+02
    -39.123  0.0000E+00  0.1000E+02
    -38.751  0.0000E+00  0.1000E+02
    -38.379  0.0000E+00  0.1000E+02
    -38.008  0.0000E+00  0.1000E+02
    -37.636  0.0000E+00  0.1000E+02
    -37.264  0.0000E+00  0.1000E+02
    -36.892  0.0000E+00  0.1000E+02
    -36.521  0.0000E+00  0.1000E+02
    -36.149  0.0000E+00  0.1000E+02
    -35.777  0.0000E+00  0.1000E+02
    -35.405  0.0000E+00  0.1000E+02
    -35.034  0.0000E+00  0.1000E+02
    -34.662  0.0000E+00  0.1000E+02
    -34.290  0.0000E+00  0.1000E+02
    -33.918  0.0000E+00  0.1000E+02
    -33.547  0.0000E+00  0.1000E+02
    -33.175  0.0000E+00  0.1000E+02
    -32.803  0.0000E+00  0.1000E+02
    -32.431  0.0000E+00  0.1000E+02
    -32.060  0.0000E+00  0.1000E+02
    -31.688  0.0000E+00  0.1000E+02
    -31.316  0.0000E+00  0.1000E+02
    -30.944  0.0000E+00  0.1000E+02
    -30.572  0.0000E+00  0.1000E+02
    -30.201  0.0000E+00  0.1000E+02
    -29.829  0.0000E+00  0.1000E+02
    -29.457  0.0000E+00  0.1000E+02
    -29.085  0.0000E+00  0.1000E+02
    -28.714  0.0000E+00  0.1000E+02
    -28.342  0.0000E+00  0.1000E+02
    -27.970  0.0000E+00  0.1000E+02
    -27.598  0.0000E+00  0.1000E+02
    -27.227  0.0000E+00  0.1000E+02
    -26.855  0.0000E+00  0.1000E+02
    -26.483  0.0000E+00  0.1000E+02
    -26.111  0.0000E+00  0.1000E+02
    -25.740  0.0000E+00  0.1000E+02
    -25.368  0.0000E+00  0.1000E+02
    -24.996  0.0000E+00  0.1000E+02
    -24.624  0.0000E+00  0.1000E+02
    -24.253  0.0000E+00  0.1000E+02
    -23.881  0.0000E+00  0.1000E+02
    -23.509  0.0000E+00  0.1000E+02
    -23.137  0.0000E+00  0.1000E+02
    -22.766  0.0000E+00  0.1000E+02
    -22.394  0.0000E+00  0.1000E+02
    -22.022  0.0000E+00  0.1000E+02
    -21.650  0.0000E+00  0.1000E+02
    -21.279  0.0000E+00  0.1000E+02
    -20.907  0.0000E+00  0.1000E+02
    -20.535  0.0000E+00  0.1000E+02
    -20.163  0.0000E+00  0.1000E+02
    -19.791  0.2410E-01  0.1001E+02
    -19.420  0.0000E+00  0.1200E+02
    -19.048  0.0000E+00  0.1200E+02
    -18.676  0.0000E+00  0.1200E+02
    -18.304  0.0000E+00  0.1200E+02
    -17.933  0.0000E+00  0.1200E+02
    -17.561  0.0000E+00  0.1200E+02
    -17.189  0.0000E+00  0.1200E+02
    -16.817  0.0000E+00  0.1200E+02
    -16.446  0.0000E+00  0.1200E+02
    -16.074  0.0000E+00  0.1200E+02
    -15.702  0.0000E+00  0.1200E+02
    -15.330  0.0000E+00  0.1200E+02
    -14.959  0.0000E+00  0.1200E+02
    -14.587  0.0000E+00  0.1200E+02
    -14.215  0.0000E+00  0.1200E+02
    -13.843  0.0000E+00  0.1200E+02
    -13.472  0.0000E+00  0.1200E+02
    -13.100  0.0000E+00  0.1200E+02
    -12.728  0.0000E+00  0.1200E+02
    -12.356  0.0000E+00  0.1200E+02
    -11.985  0.0000E+00  0.1200E+02
    -11.613  0.0000E+00  0.1200E+02
    -11.241  0.0000E+00  0.1200E+02
    -10.869  0.0000E+00  0.1200E+02
    -10.497  0.0000E+00  0.1200E+02
    -10.126  0.0000E+00  0.1200E+02
     -9.754  0.0000E+00  0.1200E+02
     -9.382  0.0000E+00  0.1200E+02
     -9.010  0.0000E+00  0.1200E+02
     -8.639  0.0000E+00  0.1200E+02
     -8.267  0.0000E+00  0.1200E+02
     -7.895  0.0000E+00  0.1200E+02
     -7.523  0.0000E+00  0.1340E+02
     -7.152  0.0000E+00  0.1386E+02
     -6.780  0.0000E+00  0.1399E+02
     -6.408  0.0000E+00  0.1400E+02
     -6.036  0.0000E+00  0.1400E+02
     -5.665  0.0000E+00  0.1400E+02
     -5.293  0.0000E+00  0.1400E+02
     -4.921  0.0000E+00  0.1469E+02
     -4.549  0.0000E+00  0.1545E+02
     -4.178  0.0000E+00  0.1597E+02
     -3.806  0.1482E+00  0.1683E+02
     -3.434  0.0000E+00  0.1763E+02
     -3.062  0.2315E-05  0.1791E+02
     -2.691  0.0000E+00  0.1800E+02
     -2.319  0.0000E+00  0.1800E+02
     -1.947  0.0000E+00  0.1800E+02
     -1.575  0.0000E+00  0.1800E+02
     -1.203  0.0000E+00  0.1800E+02
     -0.832  0.0000E+00  0.1800E+02
     -0.460  0.0000E+00  0.1800E+02
     -0.088  0.0000E+00  0.1800E+02
      0.284  0.0000E+00  0.1800E+02
      0.655  0.0000E+00  0.1800E+02
      1.027  0.0000E+00  0.1800E+02
      1.399  0.0000E+00  0.1800E+02
      1.771  0.0000E+00  0.1800E+02
      2.142  0.0000E+00  0.1800E+02
      2.514  0.0000E+00  0.1800E+02
      2.886  0.0000E+00  0.1800E+02
      3.258  0.0000E+00  0.1800E+02
      3.629  0.0000E+00  0.1800E+02
      4.001  0.0000E+00  0.1801E+02
      4.373  0.0000E+00  0.1801E+02
      4.745  0.0000E+00  0.1808E+02
      5.116  0.0000E+00  0.1814E+02
      5.488  0.0000E+00  0.1817E+02
      5.860  0.0000E+00  0.1844E+02
      6.232  0.2989E+00  0.1900E+02
      6.603  0.0000E+00  0.1958E+02
      6.975  0.0000E+00  0.2008E+02
      7.347  0.0000E+00  0.2031E+02
      7.719  0.0000E+00  0.2064E+02
      8.091  0.0000E+00  0.2164E+02
      8.462  0.0000E+00  0.2203E+02
      8.834  0.0000E+00  0.2232E+02
      9.206  0.3304E-13  0.2281E+02
      9.578  0.0000E+00  0.2362E+02
      9.949  0.0000E+00  0.2461E+02
     10.321  0.7830E-03  0.2478E+02
     10.693  0.0000E+00  0.2550E+02
     11.065  0.0000E+00  0.2583E+02
     11.436  0.0000E+00  0.2594E+02
     11.808  0.0000E+00  0.2674E+02
     12.180  0.0000E+00  0.2732E+02
     12.552  0.0000E+00  0.2794E+02
     12.923  0.0000E+00  0.2844E+02
     13.295  0.0000E+00  0.2896E+02
     13.667  0.2133E-04  0.2974E+02
     14.039  0.0000E+00  0.3042E+02
     14.410  0.0000E+00  0.3089E+02
     14.782  0.0000E+00  0.3127E+02
     15.154  0.0000E+00  0.3166E+02
     15.526  0.0000E+00  0.3276E+02
     15.897  0.3296E-12  0.3453E+02
     16.269  0.5960E+00  0.3734E+02
     16.641  0.0000E+00  0.3988E+02
     17.013  0.0000E+00  0.4165E+02
     17.385  0.0000E+00  0.4277E+02
     17.756  0.0000E+00  0.4369E+02
     18.128  0.0000E+00  0.4401E+02
     18.500  0.5977E+00  0.4526E+02
     18.872  0.0000E+00  0.4548E+02
     19.243  0.0000E+00  0.4614E+02
     19.615  0.0000E+00  0.4732E+02
     19.987  0.1773E-07  0.4766E+02
     20.359  0.0000E+00  0.4895E+02
     20.730  0.0000E+00  0.4960E+02
     21.102  0.0000E+00  0.5038E+02
     21.474  0.0000E+00  0.5135E+02
     21.846  0.0000E+00  0.5296E+02
     22.217  0.1993E+00  0.5392E+02
     22.589  0.0000E+00  0.5538E+02
     22.961  0.8512E-07  0.5616E+02
     23.333  0.0000E+00  0.5710E+02
     23.704  0.0000E+00  0.5775E+02
     24.076  0.2004E-12  0.5800E+02
     24.448  0.0000E+00  0.5867E+02
     24.820  0.0000E+00  0.5964E+02
     25.191  0.0000E+00  0.6053E+02
     25.563  0.0000E+00  0.6131E+02
     25.935  0.2989E+00  0.6159E+02
     26.307  0.0000E+00  0.6318E+02
     26.678  0.8881E-06  0.6368E+02
     27.050  0.0000E+00  0.6454E+02
     27.422  0.2484E+00  0.6572E+02
     27.794  0.7442E-02  0.6634E+02
     28.166  0.0000E+00  0.6811E+02
     28.537  0.2078E+00  0.6933E+02
     28.909  0.0000E+00  0.7055E+02
     29.281  0.0000E+00  0.7140E+02
     29.653  0.5978E+00  0.7213E+02
     30.024  0.0000E+00  0.7274E+02
     30.396  0.0000E+00  0.7296E+02
     30.768  0.0000E+00  0.7430E+02
     31.140  0.0000E+00  0.7487E+02
     31.511  0.1555E-02  0.7547E+02
     31.883  0.0000E+00  0.7714E+02
     32.255  0.0000E+00  0.7861E+02
     32.627  0.0000E+00  0.7976E+02
     32.998  0.4824E-08  0.8089E+02
     33.370  0.0000E+00  0.8184E+02
     33.742  0.0000E+00  0.8310E+02
     34.114  0.0000E+00  0.8360E+02
     34.485  0.0000E+00  0.8487E+02
     34.857  0.2989E+00  0.8547E+02
     35.229  0.0000E+00  0.8669E+02
     35.601  0.0000E+00  0.8739E+02
     35.972  0.0000E+00  0.8852E+02
     36.344  0.0000E+00  0.8894E+02
     36.716  0.6512E-15  0.8994E+02
     37.088  0.0000E+00  0.9078E+02
     37.460  0.3930E-06  0.9154E+02
     37.831  0.0000E+00  0.9294E+02
     38.203  0.1993E+00  0.9415E+02
     38.575  0.2989E+00  0.9585E+02
     38.947  0.0000E+00  0.9626E+02
     39.318  0.0000E+00  0.9726E+02
     39.690  0.2989E+00  0.9822E+02
     40.062  0.1072E-08  0.9877E+02
     40.434  0.0000E+00  0.1006E+03
     40.805  0.3211E-01  0.1013E+03
     41.177  0.3274E-02  0.1027E+03
     41.549  0.0000E+00  0.1036E+03
     41.921  0.0000E+00  0.1049E+03
     42.292  0.1494E+00  0.1065E+03
     42.664  0.0000E+00  0.1079E+03
     43.036  0.0000E+00  0.1085E+03
     43.408  0.0000E+00  0.1088E+03
     43.779  0.0000E+00  0.1100E+03
     44.151  0.0000E+00  0.1111E+03
     44.523  0.5975E+00  0.1126E+03
     44.895  0.0000E+00  0.1140E+03
     45.266  0.0000E+00  0.1150E+03
     45.638  0.7472E-01  0.1159E+03
     46.010  0.0000E+00  0.1175E+03
     46.382  0.0000E+00  0.1184E+03
     46.754  0.0000E+00  0.1192E+03
     47.125  0.0000E+00  0.1205E+03
     47.497  0.0000E+00  0.1208E+03
     47.869  0.0000E+00  0.1218E+03
     48.241  0.0000E+00  0.1225E+03
     48.612  0.0000E+00  0.1237E+03
     48.984  0.0000E+00  0.1246E+03
     49.356  0.0000E+00  0.1261E+03
     49.728  0.0000E+00  0.1272E+03
     50.099  0.9978E-02  0.1276E+03
     50.471  0.0000E+00  0.1280E+03
     50.843  0.0000E+00  0.1280E+03
     51.215  0.0000E+00  0.1280E+03
     51.586  0.0000E+00  0.1280E+03
     51.958  0.0000E+00  0.1280E+03
     52.330  0.0000E+00  0.1280E+03
     52.702  0.0000E+00  0.1280E+03
     53.073  0.0000E+00  0.1280E+03
     53.445  0.0000E+00  0.1280E+03
     53.817  0.0000E+00  0.1280E+03
     54.189  0.0000E+00  0.1280E+03
     54.560  0.0000E+00  0.1280E+03
     54.932  0.0000E+00  0.1280E+03
     55.304  0.0000E+00  0.1280E+03
     55.676  0.0000E+00  0.1280E+03
