   1   1   0   0
  0.5789729E+02  0.4342346E-09  0.4342346E-09  0.4342346E-09  0.1000000E-15
  1.000000000000000E-004
  CAR 
 Og_FCC                                  
     17.38671349    -32.74721707  301      3.96544250      1.00000000
    -32.747  0.0000E+00  0.0000E+00
    -32.580  0.0000E+00  0.0000E+00
    -32.413  0.0000E+00  0.0000E+00
    -32.246  0.0000E+00  0.0000E+00
    -32.079  0.0000E+00  0.0000E+00
    -31.912  0.0000E+00  0.0000E+00
    -31.745  0.0000E+00  0.0000E+00
    -31.577  0.0000E+00  0.0000E+00
    -31.410  0.0000E+00  0.0000E+00
    -31.243  0.0000E+00  0.0000E+00
    -31.076  0.0000E+00  0.0000E+00
    -30.909  0.0000E+00  0.0000E+00
    -30.742  0.0000E+00  0.0000E+00
    -30.575  0.0000E+00  0.0000E+00
    -30.408  0.0000E+00  0.4000E+01
    -30.241  0.0000E+00  0.4000E+01
    -30.073  0.0000E+00  0.4000E+01
    -29.906  0.0000E+00  0.4000E+01
    -29.739  0.0000E+00  0.4000E+01
    -29.572  0.0000E+00  0.4000E+01
    -29.405  0.0000E+00  0.4000E+01
    -29.238  0.0000E+00  0.4000E+01
    -29.071  0.0000E+00  0.4000E+01
    -28.904  0.0000E+00  0.4000E+01
    -28.737  0.0000E+00  0.4000E+01
    -28.569  0.0000E+00  0.4000E+01
    -28.402  0.0000E+00  0.4000E+01
    -28.235  0.0000E+00  0.4000E+01
    -28.068  0.0000E+00  0.4000E+01
    -27.901  0.0000E+00  0.4000E+01
    -27.734  0.0000E+00  0.4000E+01
    -27.567  0.0000E+00  0.4000E+01
    -27.400  0.0000E+00  0.4000E+01
    -27.232  0.0000E+00  0.4000E+01
    -27.065  0.0000E+00  0.4000E+01
    -26.898  0.0000E+00  0.4000E+01
    -26.731  0.0000E+00  0.4000E+01
    -26.564  0.0000E+00  0.4000E+01
    -26.397  0.0000E+00  0.4000E+01
    -26.230  0.0000E+00  0.4000E+01
    -26.063  0.0000E+00  0.4000E+01
    -25.896  0.0000E+00  0.4000E+01
    -25.728  0.0000E+00  0.4000E+01
    -25.561  0.0000E+00  0.4000E+01
    -25.394  0.0000E+00  0.4000E+01
    -25.227  0.0000E+00  0.4000E+01
    -25.060  0.0000E+00  0.4000E+01
    -24.893  0.0000E+00  0.4000E+01
    -24.726  0.0000E+00  0.4000E+01
    -24.559  0.0000E+00  0.4000E+01
    -24.392  0.0000E+00  0.4000E+01
    -24.224  0.0000E+00  0.4000E+01
    -24.057  0.0000E+00  0.4000E+01
    -23.890  0.0000E+00  0.4000E+01
    -23.723  0.0000E+00  0.1000E+02
    -23.556  0.0000E+00  0.1000E+02
    -23.389  0.0000E+00  0.1000E+02
    -23.222  0.0000E+00  0.1000E+02
    -23.055  0.0000E+00  0.1000E+02
    -22.888  0.0000E+00  0.1000E+02
    -22.720  0.0000E+00  0.1000E+02
    -22.553  0.0000E+00  0.1000E+02
    -22.386  0.0000E+00  0.1000E+02
    -22.219  0.0000E+00  0.1000E+02
    -22.052  0.0000E+00  0.1000E+02
    -21.885  0.0000E+00  0.1000E+02
    -21.718  0.0000E+00  0.1000E+02
    -21.551  0.0000E+00  0.1000E+02
    -21.384  0.0000E+00  0.1000E+02
    -21.216  0.0000E+00  0.1000E+02
    -21.049  0.0000E+00  0.1000E+02
    -20.882  0.0000E+00  0.1000E+02
    -20.715  0.0000E+00  0.1000E+02
    -20.548  0.0000E+00  0.1000E+02
    -20.381  0.0000E+00  0.1000E+02
    -20.214  0.0000E+00  0.1000E+02
    -20.047  0.8415E+00  0.1200E+02
    -19.880  0.0000E+00  0.1200E+02
    -19.712  0.0000E+00  0.1200E+02
    -19.545  0.0000E+00  0.1200E+02
    -19.378  0.0000E+00  0.1200E+02
    -19.211  0.0000E+00  0.1200E+02
    -19.044  0.0000E+00  0.1200E+02
    -18.877  0.0000E+00  0.1200E+02
    -18.710  0.0000E+00  0.1200E+02
    -18.543  0.0000E+00  0.1200E+02
    -18.375  0.0000E+00  0.1200E+02
    -18.208  0.0000E+00  0.1200E+02
    -18.041  0.0000E+00  0.1200E+02
    -17.874  0.0000E+00  0.1200E+02
    -17.707  0.0000E+00  0.1200E+02
    -17.540  0.0000E+00  0.1200E+02
    -17.373  0.0000E+00  0.1200E+02
    -17.206  0.0000E+00  0.1200E+02
    -17.039  0.0000E+00  0.1200E+02
    -16.871  0.0000E+00  0.1200E+02
    -16.704  0.0000E+00  0.1200E+02
    -16.537  0.0000E+00  0.1200E+02
    -16.370  0.0000E+00  0.1200E+02
    -16.203  0.0000E+00  0.1200E+02
    -16.036  0.0000E+00  0.1200E+02
    -15.869  0.0000E+00  0.1200E+02
    -15.702  0.0000E+00  0.1200E+02
    -15.535  0.0000E+00  0.1200E+02
    -15.367  0.0000E+00  0.1200E+02
    -15.200  0.0000E+00  0.1200E+02
    -15.033  0.0000E+00  0.1200E+02
    -14.866  0.0000E+00  0.1200E+02
    -14.699  0.0000E+00  0.1200E+02
    -14.532  0.0000E+00  0.1200E+02
    -14.365  0.0000E+00  0.1200E+02
    -14.198  0.0000E+00  0.1200E+02
    -14.031  0.0000E+00  0.1200E+02
    -13.863  0.0000E+00  0.1200E+02
    -13.696  0.0000E+00  0.1200E+02
    -13.529  0.0000E+00  0.1200E+02
    -13.362  0.0000E+00  0.1200E+02
    -13.195  0.0000E+00  0.1200E+02
    -13.028  0.0000E+00  0.1200E+02
    -12.861  0.0000E+00  0.1200E+02
    -12.694  0.0000E+00  0.1200E+02
    -12.527  0.0000E+00  0.1200E+02
    -12.359  0.0000E+00  0.1200E+02
    -12.192  0.0000E+00  0.1200E+02
    -12.025  0.0000E+00  0.1200E+02
    -11.858  0.0000E+00  0.1200E+02
    -11.691  0.0000E+00  0.1200E+02
    -11.524  0.0000E+00  0.1200E+02
    -11.357  0.0000E+00  0.1200E+02
    -11.190  0.0000E+00  0.1200E+02
    -11.023  0.0000E+00  0.1200E+02
    -10.855  0.0000E+00  0.1200E+02
    -10.688  0.0000E+00  0.1200E+02
    -10.521  0.0000E+00  0.1200E+02
    -10.354  0.0000E+00  0.1200E+02
    -10.187  0.0000E+00  0.1200E+02
    -10.020  0.0000E+00  0.1200E+02
     -9.853  0.0000E+00  0.1200E+02
     -9.686  0.0000E+00  0.1200E+02
     -9.518  0.0000E+00  0.1200E+02
     -9.351  0.0000E+00  0.1200E+02
     -9.184  0.0000E+00  0.1200E+02
     -9.017  0.0000E+00  0.1200E+02
     -8.850  0.0000E+00  0.1200E+02
     -8.683  0.0000E+00  0.1200E+02
     -8.516  0.0000E+00  0.1200E+02
     -8.349  0.0000E+00  0.1200E+02
     -8.182  0.0000E+00  0.1200E+02
     -8.014  0.0000E+00  0.1200E+02
     -7.847  0.0000E+00  0.1200E+02
     -7.680  0.0000E+00  0.1200E+02
     -7.513  0.0000E+00  0.1200E+02
     -7.346  0.0000E+00  0.1228E+02
     -7.179  0.0000E+00  0.1353E+02
     -7.012  0.0000E+00  0.1397E+02
     -6.845  0.0000E+00  0.1400E+02
     -6.678  0.0000E+00  0.1400E+02
     -6.510  0.0000E+00  0.1400E+02
     -6.343  0.0000E+00  0.1400E+02
     -6.176  0.0000E+00  0.1400E+02
     -6.009  0.0000E+00  0.1400E+02
     -5.842  0.0000E+00  0.1400E+02
     -5.675  0.0000E+00  0.1400E+02
     -5.508  0.0000E+00  0.1400E+02
     -5.341  0.0000E+00  0.1400E+02
     -5.174  0.0000E+00  0.1400E+02
     -5.006  0.0000E+00  0.1400E+02
     -4.839  0.0000E+00  0.1400E+02
     -4.672  0.0000E+00  0.1400E+02
     -4.505  0.0000E+00  0.1400E+02
     -4.338  0.0000E+00  0.1400E+02
     -4.171  0.0000E+00  0.1400E+02
     -4.004  0.0000E+00  0.1400E+02
     -3.837  0.0000E+00  0.1400E+02
     -3.670  0.0000E+00  0.1400E+02
     -3.502  0.0000E+00  0.1400E+02
     -3.335  0.0000E+00  0.1400E+02
     -3.168  0.0000E+00  0.1400E+02
     -3.001  0.0000E+00  0.1400E+02
     -2.834  0.0000E+00  0.1400E+02
     -2.667  0.0000E+00  0.1400E+02
     -2.500  0.0000E+00  0.1400E+02
     -2.333  0.0000E+00  0.1400E+02
     -2.166  0.0000E+00  0.1400E+02
     -1.998  0.0000E+00  0.1400E+02
     -1.831  0.0000E+00  0.1400E+02
     -1.664  0.0000E+00  0.1400E+02
     -1.497  0.0000E+00  0.1400E+02
     -1.330  0.0000E+00  0.1400E+02
     -1.163  0.0000E+00  0.1400E+02
     -0.996  0.0000E+00  0.1400E+02
     -0.829  0.0000E+00  0.1400E+02
     -0.662  0.0000E+00  0.1400E+02
     -0.494  0.0000E+00  0.1400E+02
     -0.327  0.0000E+00  0.1400E+02
     -0.160  0.0000E+00  0.1400E+02
      0.007  0.0000E+00  0.1400E+02
      0.174  0.0000E+00  0.1400E+02
      0.341  0.0000E+00  0.1400E+02
      0.508  0.0000E+00  0.1400E+02
      0.675  0.0000E+00  0.1400E+02
      0.843  0.2165E+01  0.1458E+02
      1.010  0.0000E+00  0.1553E+02
      1.177  0.0000E+00  0.1553E+02
      1.344  0.0000E+00  0.1553E+02
      1.511  0.0000E+00  0.1572E+02
      1.678  0.0000E+00  0.1616E+02
      1.845  0.0000E+00  0.1616E+02
      2.012  0.0000E+00  0.1616E+02
      2.179  0.0000E+00  0.1616E+02
      2.347  0.0000E+00  0.1700E+02
      2.514  0.0000E+00  0.1700E+02
      2.681  0.0000E+00  0.1738E+02
      2.848  0.0000E+00  0.1738E+02
      3.015  0.5610E+00  0.1747E+02
      3.182  0.0000E+00  0.1756E+02
      3.349  0.0000E+00  0.1756E+02
      3.516  0.0000E+00  0.1769E+02
      3.683  0.0000E+00  0.1794E+02
      3.851  0.0000E+00  0.1797E+02
      4.018  0.0000E+00  0.1803E+02
      4.185  0.0000E+00  0.1803E+02
      4.352  0.0000E+00  0.1803E+02
      4.519  0.0000E+00  0.1803E+02
      4.686  0.0000E+00  0.1803E+02
      4.853  0.0000E+00  0.1803E+02
      5.020  0.0000E+00  0.1803E+02
      5.187  0.0000E+00  0.1803E+02
      5.355  0.0000E+00  0.1803E+02
      5.522  0.0000E+00  0.1803E+02
      5.689  0.0000E+00  0.1803E+02
      5.856  0.0000E+00  0.1803E+02
      6.023  0.0000E+00  0.1803E+02
      6.190  0.0000E+00  0.1828E+02
      6.357  0.0000E+00  0.1850E+02
      6.524  0.0000E+00  0.1850E+02
      6.691  0.0000E+00  0.1850E+02
      6.859  0.0000E+00  0.1850E+02
      7.026  0.0000E+00  0.1869E+02
      7.193  0.0000E+00  0.1869E+02
      7.360  0.0000E+00  0.1944E+02
      7.527  0.0000E+00  0.1944E+02
      7.694  0.0000E+00  0.2000E+02
      7.861  0.0000E+00  0.2009E+02
      8.028  0.0000E+00  0.2009E+02
      8.195  0.0000E+00  0.2009E+02
      8.363  0.0000E+00  0.2009E+02
      8.530  0.0000E+00  0.2009E+02
      8.697  0.0000E+00  0.2028E+02
      8.864  0.0000E+00  0.2141E+02
      9.031  0.0000E+00  0.2141E+02
      9.198  0.0000E+00  0.2141E+02
      9.365  0.0000E+00  0.2141E+02
      9.532  0.0000E+00  0.2141E+02
      9.700  0.5609E+00  0.2159E+02
      9.867  0.0000E+00  0.2178E+02
     10.034  0.0000E+00  0.2222E+02
     10.201  0.0000E+00  0.2222E+02
     10.368  0.0000E+00  0.2347E+02
     10.535  0.3740E+00  0.2359E+02
     10.702  0.0000E+00  0.2359E+02
     10.869  0.0000E+00  0.2391E+02
     11.036  0.0000E+00  0.2431E+02
     11.204  0.0000E+00  0.2434E+02
     11.371  0.0000E+00  0.2462E+02
     11.538  0.1532E+01  0.2488E+02
     11.705  0.0000E+00  0.2525E+02
     11.872  0.0000E+00  0.2525E+02
     12.039  0.0000E+00  0.2619E+02
     12.206  0.0000E+00  0.2631E+02
     12.373  0.0000E+00  0.2631E+02
     12.540  0.0000E+00  0.2669E+02
     12.708  0.0000E+00  0.2669E+02
     12.875  0.0000E+00  0.2669E+02
     13.042  0.0000E+00  0.2688E+02
     13.209  0.0000E+00  0.2688E+02
     13.376  0.0000E+00  0.2688E+02
     13.543  0.0000E+00  0.2762E+02
     13.710  0.0000E+00  0.2781E+02
     13.877  0.0000E+00  0.2781E+02
     14.044  0.0000E+00  0.2781E+02
     14.212  0.0000E+00  0.2781E+02
     14.379  0.0000E+00  0.2781E+02
     14.546  0.0000E+00  0.2781E+02
     14.713  0.0000E+00  0.2781E+02
     14.880  0.0000E+00  0.2781E+02
     15.047  0.6404E-06  0.2781E+02
     15.214  0.0000E+00  0.2800E+02
     15.381  0.0000E+00  0.2800E+02
     15.548  0.0000E+00  0.2800E+02
     15.716  0.0000E+00  0.2800E+02
     15.883  0.0000E+00  0.2800E+02
     16.050  0.0000E+00  0.2800E+02
     16.217  0.0000E+00  0.2800E+02
     16.384  0.0000E+00  0.2800E+02
     16.551  0.0000E+00  0.2800E+02
     16.718  0.0000E+00  0.2800E+02
     16.885  0.0000E+00  0.2800E+02
     17.052  0.0000E+00  0.2800E+02
     17.220  0.0000E+00  0.2800E+02
     17.387  0.0000E+00  0.2800E+02
