   1   1   0   0
  0.1628488E+02  0.2845115E-09  0.2845115E-09  0.2845115E-09  0.1000000E-15
  1.000000000000000E-004
  CAR 
 Og_FCC                                  
     26.43395876    -17.81864059  301    -14.53657280      1.00000000
    -17.819  0.0000E+00  0.0000E+00
    -17.671  0.0000E+00  0.0000E+00
    -17.524  0.0000E+00  0.0000E+00
    -17.376  0.0000E+00  0.0000E+00
    -17.229  0.0000E+00  0.0000E+00
    -17.081  0.0000E+00  0.0000E+00
    -16.934  0.0000E+00  0.0000E+00
    -16.786  0.0000E+00  0.0000E+00
    -16.639  0.0000E+00  0.0000E+00
    -16.491  0.0000E+00  0.0000E+00
    -16.344  0.0000E+00  0.0000E+00
    -16.196  0.0000E+00  0.0000E+00
    -16.049  0.0000E+00  0.0000E+00
    -15.901  0.0000E+00  0.0000E+00
    -15.754  0.0000E+00  0.5831E-02
    -15.606  0.0000E+00  0.5248E-01
    -15.459  0.0000E+00  0.8746E-01
    -15.311  0.0000E+00  0.1574E+00
    -15.163  0.0000E+00  0.3440E+00
    -15.016  0.0000E+00  0.5190E+00
    -14.868  0.0000E+00  0.8455E+00
    -14.721  0.0000E+00  0.1475E+01
    -14.573  0.0000E+00  0.2000E+01
    -14.426  0.0000E+00  0.2000E+01
    -14.278  0.0000E+00  0.2000E+01
    -14.131  0.0000E+00  0.2000E+01
    -13.983  0.0000E+00  0.2000E+01
    -13.836  0.0000E+00  0.2000E+01
    -13.688  0.0000E+00  0.2000E+01
    -13.541  0.0000E+00  0.2000E+01
    -13.393  0.0000E+00  0.2000E+01
    -13.246  0.0000E+00  0.2000E+01
    -13.098  0.0000E+00  0.2000E+01
    -12.951  0.0000E+00  0.2000E+01
    -12.803  0.0000E+00  0.2000E+01
    -12.656  0.0000E+00  0.2000E+01
    -12.508  0.0000E+00  0.2000E+01
    -12.361  0.0000E+00  0.2000E+01
    -12.213  0.0000E+00  0.2000E+01
    -12.066  0.0000E+00  0.2000E+01
    -11.918  0.0000E+00  0.2000E+01
    -11.771  0.0000E+00  0.2000E+01
    -11.623  0.0000E+00  0.2000E+01
    -11.476  0.0000E+00  0.2000E+01
    -11.328  0.0000E+00  0.2000E+01
    -11.181  0.0000E+00  0.2000E+01
    -11.033  0.0000E+00  0.2000E+01
    -10.886  0.0000E+00  0.2000E+01
    -10.738  0.0000E+00  0.2000E+01
    -10.591  0.0000E+00  0.2000E+01
    -10.443  0.0000E+00  0.2000E+01
    -10.296  0.0000E+00  0.2000E+01
    -10.148  0.0000E+00  0.2000E+01
    -10.001  0.0000E+00  0.2000E+01
     -9.853  0.0000E+00  0.2000E+01
     -9.706  0.0000E+00  0.2000E+01
     -9.558  0.0000E+00  0.2000E+01
     -9.411  0.0000E+00  0.2000E+01
     -9.263  0.0000E+00  0.2000E+01
     -9.116  0.0000E+00  0.2000E+01
     -8.968  0.0000E+00  0.2000E+01
     -8.821  0.0000E+00  0.2000E+01
     -8.673  0.0000E+00  0.2000E+01
     -8.526  0.0000E+00  0.2000E+01
     -8.378  0.0000E+00  0.2000E+01
     -8.231  0.0000E+00  0.2000E+01
     -8.083  0.0000E+00  0.2000E+01
     -7.936  0.0000E+00  0.2000E+01
     -7.788  0.0000E+00  0.2000E+01
     -7.641  0.0000E+00  0.2000E+01
     -7.493  0.0000E+00  0.2000E+01
     -7.346  0.0000E+00  0.2000E+01
     -7.198  0.0000E+00  0.2000E+01
     -7.051  0.0000E+00  0.2000E+01
     -6.903  0.0000E+00  0.2000E+01
     -6.755  0.0000E+00  0.2000E+01
     -6.608  0.0000E+00  0.2000E+01
     -6.460  0.0000E+00  0.2000E+01
     -6.313  0.0000E+00  0.2000E+01
     -6.165  0.0000E+00  0.2000E+01
     -6.018  0.0000E+00  0.2000E+01
     -5.870  0.0000E+00  0.2000E+01
     -5.723  0.0000E+00  0.2000E+01
     -5.575  0.0000E+00  0.2000E+01
     -5.428  0.0000E+00  0.2000E+01
     -5.280  0.0000E+00  0.2000E+01
     -5.133  0.0000E+00  0.2000E+01
     -4.985  0.0000E+00  0.2000E+01
     -4.838  0.0000E+00  0.2000E+01
     -4.690  0.0000E+00  0.2000E+01
     -4.543  0.0000E+00  0.2000E+01
     -4.395  0.0000E+00  0.2000E+01
     -4.248  0.0000E+00  0.2000E+01
     -4.100  0.0000E+00  0.2000E+01
     -3.953  0.0000E+00  0.2000E+01
     -3.805  0.0000E+00  0.2000E+01
     -3.658  0.0000E+00  0.2000E+01
     -3.510  0.0000E+00  0.2000E+01
     -3.363  0.0000E+00  0.2000E+01
     -3.215  0.0000E+00  0.2000E+01
     -3.068  0.0000E+00  0.2000E+01
     -2.920  0.0000E+00  0.2000E+01
     -2.773  0.0000E+00  0.2000E+01
     -2.625  0.0000E+00  0.2000E+01
     -2.478  0.0000E+00  0.2000E+01
     -2.330  0.0000E+00  0.2000E+01
     -2.183  0.0000E+00  0.2000E+01
     -2.035  0.0000E+00  0.2000E+01
     -1.888  0.0000E+00  0.2000E+01
     -1.740  0.0000E+00  0.2000E+01
     -1.593  0.0000E+00  0.2000E+01
     -1.445  0.0000E+00  0.2000E+01
     -1.298  0.0000E+00  0.2000E+01
     -1.150  0.0000E+00  0.2000E+01
     -1.003  0.0000E+00  0.2000E+01
     -0.855  0.0000E+00  0.2000E+01
     -0.708  0.0000E+00  0.2000E+01
     -0.560  0.0000E+00  0.2000E+01
     -0.413  0.0000E+00  0.2000E+01
     -0.265  0.0000E+00  0.2000E+01
     -0.118  0.0000E+00  0.2000E+01
      0.030  0.0000E+00  0.2000E+01
      0.177  0.0000E+00  0.2000E+01
      0.325  0.0000E+00  0.2000E+01
      0.472  0.0000E+00  0.2000E+01
      0.620  0.0000E+00  0.2000E+01
      0.767  0.0000E+00  0.2000E+01
      0.915  0.0000E+00  0.2000E+01
      1.062  0.0000E+00  0.2000E+01
      1.210  0.0000E+00  0.2000E+01
      1.357  0.0000E+00  0.2000E+01
      1.505  0.0000E+00  0.2000E+01
      1.653  0.0000E+00  0.2000E+01
      1.800  0.0000E+00  0.2000E+01
      1.948  0.0000E+00  0.2000E+01
      2.095  0.0000E+00  0.2000E+01
      2.243  0.0000E+00  0.2000E+01
      2.390  0.0000E+00  0.2000E+01
      2.538  0.0000E+00  0.2000E+01
      2.685  0.0000E+00  0.2000E+01
      2.833  0.0000E+00  0.2000E+01
      2.980  0.0000E+00  0.2000E+01
      3.128  0.0000E+00  0.2000E+01
      3.275  0.0000E+00  0.2047E+01
      3.423  0.0000E+00  0.2093E+01
      3.570  0.0000E+00  0.2583E+01
      3.718  0.1643E+00  0.2829E+01
      3.865  0.0000E+00  0.2985E+01
      4.013  0.0000E+00  0.2985E+01
      4.160  0.0000E+00  0.2985E+01
      4.308  0.0000E+00  0.3125E+01
      4.455  0.0000E+00  0.3475E+01
      4.603  0.0000E+00  0.3475E+01
      4.750  0.0000E+00  0.3510E+01
      4.898  0.0000E+00  0.3510E+01
      5.045  0.0000E+00  0.3650E+01
      5.193  0.0000E+00  0.3790E+01
      5.340  0.0000E+00  0.3790E+01
      5.488  0.0000E+00  0.3860E+01
      5.635  0.0000E+00  0.3860E+01
      5.783  0.0000E+00  0.3860E+01
      5.930  0.0000E+00  0.3860E+01
      6.078  0.0000E+00  0.3860E+01
      6.225  0.0000E+00  0.3860E+01
      6.373  0.0000E+00  0.3860E+01
      6.520  0.0000E+00  0.4000E+01
      6.668  0.0000E+00  0.4000E+01
      6.815  0.0000E+00  0.4000E+01
      6.963  0.0000E+00  0.4140E+01
      7.110  0.0000E+00  0.4140E+01
      7.258  0.0000E+00  0.4140E+01
      7.405  0.0000E+00  0.4140E+01
      7.553  0.0000E+00  0.4140E+01
      7.700  0.0000E+00  0.4140E+01
      7.848  0.0000E+00  0.4280E+01
      7.995  0.0000E+00  0.4280E+01
      8.143  0.0000E+00  0.4280E+01
      8.290  0.0000E+00  0.4280E+01
      8.438  0.0000E+00  0.4350E+01
      8.585  0.4742E+00  0.4420E+01
      8.733  0.0000E+00  0.4700E+01
      8.880  0.0000E+00  0.4700E+01
      9.028  0.0000E+00  0.4700E+01
      9.175  0.0000E+00  0.4700E+01
      9.323  0.0000E+00  0.4840E+01
      9.470  0.0000E+00  0.4840E+01
      9.618  0.0000E+00  0.4840E+01
      9.765  0.0000E+00  0.4980E+01
      9.913  0.0000E+00  0.5120E+01
     10.060  0.0000E+00  0.5120E+01
     10.208  0.0000E+00  0.5259E+01
     10.356  0.0000E+00  0.5259E+01
     10.503  0.0000E+00  0.5446E+01
     10.651  0.0000E+00  0.5446E+01
     10.798  0.0000E+00  0.5446E+01
     10.946  0.0000E+00  0.5761E+01
     11.093  0.0000E+00  0.5761E+01
     11.241  0.0000E+00  0.5761E+01
     11.388  0.0000E+00  0.5901E+01
     11.536  0.0000E+00  0.5901E+01
     11.683  0.0000E+00  0.5901E+01
     11.831  0.0000E+00  0.5901E+01
     11.978  0.0000E+00  0.5901E+01
     12.126  0.0000E+00  0.5901E+01
     12.273  0.0000E+00  0.5901E+01
     12.421  0.0000E+00  0.5971E+01
     12.568  0.0000E+00  0.5971E+01
     12.716  0.0000E+00  0.6251E+01
     12.863  0.0000E+00  0.6297E+01
     13.011  0.0000E+00  0.6297E+01
     13.158  0.0000E+00  0.6297E+01
     13.306  0.0000E+00  0.6297E+01
     13.453  0.0000E+00  0.6367E+01
     13.601  0.0000E+00  0.6577E+01
     13.748  0.0000E+00  0.6717E+01
     13.896  0.0000E+00  0.6717E+01
     14.043  0.0000E+00  0.6857E+01
     14.191  0.0000E+00  0.6997E+01
     14.338  0.0000E+00  0.7277E+01
     14.486  0.0000E+00  0.7277E+01
     14.633  0.0000E+00  0.7277E+01
     14.781  0.0000E+00  0.7277E+01
     14.928  0.0000E+00  0.7487E+01
     15.076  0.0000E+00  0.7487E+01
     15.223  0.0000E+00  0.7487E+01
     15.371  0.0000E+00  0.7487E+01
     15.518  0.2040E+00  0.7517E+01
     15.666  0.0000E+00  0.7522E+01
     15.813  0.0000E+00  0.7557E+01
     15.961  0.0000E+00  0.7557E+01
     16.108  0.0000E+00  0.7557E+01
     16.256  0.9487E+00  0.7837E+01
     16.403  0.0000E+00  0.8117E+01
     16.551  0.0000E+00  0.8327E+01
     16.698  0.0000E+00  0.8327E+01
     16.846  0.0000E+00  0.8327E+01
     16.993  0.0000E+00  0.8373E+01
     17.141  0.0000E+00  0.8548E+01
     17.288  0.0000E+00  0.8758E+01
     17.436  0.0000E+00  0.8758E+01
     17.583  0.0000E+00  0.8898E+01
     17.731  0.0000E+00  0.8968E+01
     17.878  0.0000E+00  0.9248E+01
     18.026  0.0000E+00  0.9248E+01
     18.173  0.0000E+00  0.9388E+01
     18.321  0.0000E+00  0.9388E+01
     18.468  0.0000E+00  0.9388E+01
     18.616  0.0000E+00  0.9481E+01
     18.764  0.0000E+00  0.9481E+01
     18.911  0.0000E+00  0.9784E+01
     19.059  0.0000E+00  0.9784E+01
     19.206  0.0000E+00  0.9784E+01
     19.354  0.0000E+00  0.9784E+01
     19.501  0.0000E+00  0.1006E+02
     19.649  0.0000E+00  0.1006E+02
     19.796  0.0000E+00  0.1016E+02
     19.944  0.0000E+00  0.1016E+02
     20.091  0.0000E+00  0.1019E+02
     20.239  0.0000E+00  0.1019E+02
     20.386  0.0000E+00  0.1019E+02
     20.534  0.0000E+00  0.1019E+02
     20.681  0.0000E+00  0.1040E+02
     20.829  0.0000E+00  0.1042E+02
     20.976  0.0000E+00  0.1042E+02
     21.124  0.9487E+00  0.1056E+02
     21.271  0.9487E+00  0.1084E+02
     21.419  0.0000E+00  0.1084E+02
     21.566  0.0000E+00  0.1084E+02
     21.714  0.1130E+00  0.1114E+02
     21.861  0.0000E+00  0.1115E+02
     22.009  0.0000E+00  0.1115E+02
     22.156  0.0000E+00  0.1129E+02
     22.304  0.0000E+00  0.1148E+02
     22.451  0.0000E+00  0.1148E+02
     22.599  0.0000E+00  0.1148E+02
     22.746  0.1654E+00  0.1158E+02
     22.894  0.0000E+00  0.1169E+02
     23.041  0.0000E+00  0.1183E+02
     23.189  0.0000E+00  0.1183E+02
     23.336  0.0000E+00  0.1183E+02
     23.484  0.0000E+00  0.1183E+02
     23.631  0.0000E+00  0.1183E+02
     23.779  0.0000E+00  0.1183E+02
     23.926  0.0000E+00  0.1183E+02
     24.074  0.0000E+00  0.1188E+02
     24.221  0.0000E+00  0.1193E+02
     24.369  0.0000E+00  0.1193E+02
     24.516  0.0000E+00  0.1200E+02
     24.664  0.0000E+00  0.1200E+02
     24.811  0.0000E+00  0.1200E+02
     24.959  0.0000E+00  0.1200E+02
     25.106  0.0000E+00  0.1200E+02
     25.254  0.0000E+00  0.1200E+02
     25.401  0.0000E+00  0.1200E+02
     25.549  0.0000E+00  0.1200E+02
     25.696  0.0000E+00  0.1200E+02
     25.844  0.0000E+00  0.1200E+02
     25.991  0.0000E+00  0.1200E+02
     26.139  0.0000E+00  0.1200E+02
     26.286  0.0000E+00  0.1200E+02
     26.434  0.0000E+00  0.1200E+02
