    1    1    1    1
  0.1628488E+02  0.2845115E-09  0.2845115E-09  0.2845115E-09  0.1000000E-15
  1.000000000000000E-004
  CAR 
 Og_FCC                                  
      2    343     12
 
  0.0000000E+00  0.0000000E+00  0.0000000E+00  0.2915452E-02
    1      -15.807159   1.000000
    2      -15.807153   1.000000
    3        3.750602   0.000000
    4        3.750639   0.000000
    5       20.703958   0.000000
    6       20.703960   0.000000
    7       20.704577   0.000000
    8       20.704580   0.000000
    9       20.704582   0.000000
   10       20.704586   0.000000
   11       24.010800   0.000000
   12       24.010811   0.000000
 
  0.1428571E+00  0.1387779E-16  0.6938894E-17  0.2915452E-02
    1      -15.634158   1.000000
    2      -15.634152   1.000000
    3        3.630842   0.000000
    4        3.630880   0.000000
    5       16.929242   0.000000
    6       16.929255   0.000000
    7       19.750618   0.000000
    8       19.750621   0.000000
    9       19.750941   0.000000
   10       19.750944   0.000000
   11       24.050885   0.000000
   12       24.050905   0.000000
 
  0.2857143E+00  0.5551115E-16  0.2775558E-16  0.2915452E-02
    1      -15.263904   1.000000
    2      -15.263896   1.000000
    3        3.330809   0.000000
    4        3.330847   0.000000
    5       12.724481   0.000000
    6       12.724496   0.000000
    7       18.818677   0.000000
    8       18.818680   0.000000
    9       18.818985   0.000000
   10       18.818988   0.000000
   11       24.108087   0.000000
   12       24.108090   0.000000
 
  0.4285714E+00  0.2775558E-16  0.0000000E+00  0.2915452E-02
    1      -14.919027   1.000000
    2      -14.919018   1.000000
    3        3.135086   0.000000
    4        3.135126   0.000000
    5       10.405509   0.000000
    6       10.405524   0.000000
    7       18.540360   0.000000
    8       18.540362   0.000000
    9       18.540703   0.000000
   10       18.540706   0.000000
   11       22.290937   0.000000
   12       22.290949   0.000000
 
 -0.4285714E+00 -0.2775558E-16  0.0000000E+00  0.2915452E-02
    1      -14.919027   1.000000
    2      -14.919018   1.000000
    3        3.135086   0.000000
    4        3.135126   0.000000
    5       10.405509   0.000000
    6       10.405524   0.000000
    7       18.540360   0.000000
    8       18.540363   0.000000
    9       18.540703   0.000000
   10       18.540705   0.000000
   11       22.290937   0.000000
   12       22.290949   0.000000
 
 -0.2857143E+00 -0.5551115E-16 -0.2775558E-16  0.2915452E-02
    1      -15.263904   1.000000
    2      -15.263896   1.000000
    3        3.330809   0.000000
    4        3.330847   0.000000
    5       12.724481   0.000000
    6       12.724496   0.000000
    7       18.818677   0.000000
    8       18.818680   0.000000
    9       18.818985   0.000000
   10       18.818987   0.000000
   11       24.108086   0.000000
   12       24.108090   0.000000
 
 -0.1428571E+00 -0.1387779E-16 -0.6938894E-17  0.2915452E-02
    1      -15.634158   1.000000
    2      -15.634152   1.000000
    3        3.630842   0.000000
    4        3.630880   0.000000
    5       16.929242   0.000000
    6       16.929255   0.000000
    7       19.750619   0.000000
    8       19.750621   0.000000
    9       19.750941   0.000000
   10       19.750943   0.000000
   11       24.050885   0.000000
   12       24.050905   0.000000
 
  0.0000000E+00  0.1428571E+00  0.0000000E+00  0.2915452E-02
    1      -15.634158   1.000000
    2      -15.634152   1.000000
    3        3.630842   0.000000
    4        3.630880   0.000000
    5       16.929242   0.000000
    6       16.929255   0.000000
    7       19.750617   0.000000
    8       19.750622   0.000000
    9       19.750940   0.000000
   10       19.750945   0.000000
   11       24.050894   0.000000
   12       24.050906   0.000000
 
  0.1428571E+00  0.1428571E+00  0.2775558E-16  0.2915452E-02
    1      -15.591263   1.000000
    2      -15.591256   1.000000
    3        3.613649   0.000000
    4        3.613686   0.000000
    5       17.693942   0.000000
    6       17.693946   0.000000
    7       17.694202   0.000000
    8       17.694205   0.000000
    9       20.045107   0.000000
   10       20.045126   0.000000
   11       21.713722   0.000000
   12       21.713726   0.000000
 
  0.2857143E+00  0.1428571E+00  0.5551115E-16  0.2915452E-02
    1      -15.295854   1.000000
    2      -15.295846   1.000000
    3        3.502911   0.000000
    4        3.502948   0.000000
    5       13.695956   0.000000
    6       13.695971   0.000000
    7       16.447746   0.000000
    8       16.447757   0.000000
    9       19.382342   0.000000
   10       19.382384   0.000000
   11       21.116658   0.000000
   12       21.116672   0.000000
 
  0.4285714E+00  0.1428571E+00  0.0000000E+00  0.2915452E-02
    1      -14.930168   1.000000
    2      -14.930158   1.000000
    3        3.536425   0.000000
    4        3.536463   0.000000
    5       10.372724   0.000000
    6       10.372740   0.000000
    7       16.234061   0.000000
    8       16.234071   0.000000
    9       17.232271   0.000000
   10       17.232310   0.000000
   11       21.227783   0.000000
   12       21.227810   0.000000
 
 -0.4285714E+00  0.1428571E+00  0.1387779E-16  0.2915452E-02
    1      -14.805948   1.000000
    2      -14.805939   1.000000
    3        3.602909   0.000000
    4        3.602948   0.000000
    5        9.305833   0.000000
    6        9.305848   0.000000
    7       16.251407   0.000000
    8       16.251438   0.000000
    9       17.052136   0.000000
   10       17.052145   0.000000
   11       21.266393   0.000000
   12       21.266438   0.000000
 
 -0.2857143E+00  0.1428571E+00 -0.5551115E-16  0.2915452E-02
    1      -15.037644   1.000000
    2      -15.037635   1.000000
    3        3.498226   0.000000
    4        3.498264   0.000000
    5       10.894943   0.000000
    6       10.894958   0.000000
    7       16.296169   0.000000
    8       16.296191   0.000000
    9       18.774054   0.000000
   10       18.774061   0.000000
   11       22.188138   0.000000
   12       22.188919   0.000000
 
 -0.1428571E+00  0.1428571E+00  0.3358555E-17  0.2915452E-02
    1      -15.405114   1.000000
    2      -15.405106   1.000000
    3        3.506695   0.000000
    4        3.506733   0.000000
    5       14.252752   0.000000
    6       14.252766   0.000000
    7       17.245583   0.000000
    8       17.245597   0.000000
    9       20.648883   0.000000
   10       20.648886   0.000000
   11       24.422417   0.000000
   12       24.422477   0.000000
 
  0.0000000E+00  0.2857143E+00  0.0000000E+00  0.2915452E-02
    1      -15.263904   1.000000
    2      -15.263896   1.000000
    3        3.330809   0.000000
    4        3.330847   0.000000
    5       12.724481   0.000000
    6       12.724496   0.000000
    7       18.818676   0.000000
    8       18.818681   0.000000
    9       18.818984   0.000000
   10       18.818989   0.000000
   11       24.108086   0.000000
   12       24.108091   0.000000
 
  0.1428571E+00  0.2857143E+00  0.0000000E+00  0.2915452E-02
    1      -15.295854   1.000000
    2      -15.295846   1.000000
    3        3.502911   0.000000
    4        3.502948   0.000000
    5       13.695956   0.000000
    6       13.695971   0.000000
    7       16.447746   0.000000
    8       16.447757   0.000000
    9       19.382342   0.000000
   10       19.382384   0.000000
   11       21.116658   0.000000
   12       21.116672   0.000000
 
  0.2857143E+00  0.2857143E+00  0.8326673E-16  0.2915452E-02
    1      -15.097420   1.000000
    2      -15.097412   1.000000
    3        3.717251   0.000000
    4        3.717285   0.000000
    5       14.843681   0.000000
    6       14.843685   0.000000
    7       14.843904   0.000000
    8       14.843907   0.000000
    9       15.785104   0.000000
   10       15.785163   0.000000
   11       17.029489   0.000000
   12       17.029509   0.000000
 
  0.4285714E+00  0.2857143E+00 -0.2775558E-16  0.2915452E-02
    1      -14.821381   1.000000
    2      -14.821372   1.000000
    3        4.171934   0.000000
    4        4.171965   0.000000
    5       10.848467   0.000000
    6       10.848494   0.000000
    7       13.992554   0.000000
    8       13.992600   0.000000
    9       14.293648   0.000000
   10       14.293660   0.000000
   11       19.487811   0.000000
   12       19.487829   0.000000
 
 -0.4285714E+00  0.2857143E+00 -0.2081668E-16  0.2915452E-02
    1      -14.670937   1.000000
    2      -14.670927   1.000000
    3        5.020536   0.000000
    4        5.020571   0.000000
    5        7.733007   0.000000
    6        7.733029   0.000000
    7       13.480392   0.000000
    8       13.480436   0.000000
    9       14.825917   0.000000
   10       14.825929   0.000000
   11       22.746894   0.000000
   12       22.746915   0.000000
 
 -0.2857143E+00  0.2857143E+00 -0.1640708E-16  0.2915452E-02
    1      -14.779706   1.000000
    2      -14.779696   1.000000
    3        4.389843   0.000000
    4        4.389882   0.000000
    5        8.344707   0.000000
    6        8.344722   0.000000
    7       14.312582   0.000000
    8       14.312620   0.000000
    9       16.409398   0.000000
   10       16.409408   0.000000
   11       22.687480   0.000000
   12       22.687525   0.000000
 
 -0.1428571E+00  0.2857143E+00 -0.6938894E-17  0.2915452E-02
    1      -15.037644   1.000000
    2      -15.037635   1.000000
    3        3.498225   0.000000
    4        3.498264   0.000000
    5       10.894943   0.000000
    6       10.894958   0.000000
    7       16.296169   0.000000
    8       16.296191   0.000000
    9       18.774054   0.000000
   10       18.774061   0.000000
   11       22.188077   0.000000
   12       22.188137   0.000000
 
  0.0000000E+00  0.4285714E+00  0.2775558E-16  0.2915452E-02
    1      -14.919027   1.000000
    2      -14.919018   1.000000
    3        3.135086   0.000000
    4        3.135126   0.000000
    5       10.405509   0.000000
    6       10.405524   0.000000
    7       18.540359   0.000000
    8       18.540363   0.000000
    9       18.540703   0.000000
   10       18.540706   0.000000
   11       22.290933   0.000000
   12       22.290954   0.000000
 
  0.1428571E+00  0.4285714E+00  0.2775558E-16  0.2915452E-02
    1      -14.930168   1.000000
    2      -14.930158   1.000000
    3        3.536425   0.000000
    4        3.536464   0.000000
    5       10.372724   0.000000
    6       10.372740   0.000000
    7       16.234061   0.000000
    8       16.234071   0.000000
    9       17.232271   0.000000
   10       17.232310   0.000000
   11       21.227784   0.000000
   12       21.227810   0.000000
 
  0.2857143E+00  0.4285714E+00  0.8326673E-16  0.2915452E-02
    1      -14.821381   1.000000
    2      -14.821372   1.000000
    3        4.171934   0.000000
    4        4.171965   0.000000
    5       10.848467   0.000000
    6       10.848493   0.000000
    7       13.992554   0.000000
    8       13.992600   0.000000
    9       14.293648   0.000000
   10       14.293660   0.000000
   11       19.487811   0.000000
   12       19.487829   0.000000
 
  0.4285714E+00  0.4285714E+00  0.5551115E-16  0.2915452E-02
    1      -14.678650   1.000000
    2      -14.678640   1.000000
    3        4.655694   0.000000
    4        4.655716   0.000000
    5       10.890028   0.000000
    6       10.890103   0.000000
    7       13.384389   0.000000
    8       13.384392   0.000000
    9       13.384598   0.000000
   10       13.384601   0.000000
   11       15.517544   0.000000
   12       15.517564   0.000000
 
 -0.4285714E+00  0.4285714E+00  0.7110042E-17  0.2915452E-02
    1      -14.617018   1.000000
    2      -14.617008   1.000000
    3        5.352084   0.000000
    4        5.352100   0.000000
    5        8.582932   0.000000
    6        8.582989   0.000000
    7       12.374023   0.000000
    8       12.374058   0.000000
    9       13.564543   0.000000
   10       13.564555   0.000000
   11       18.774515   0.000000
   12       18.774532   0.000000
 
 -0.2857143E+00  0.4285714E+00 -0.1387779E-16  0.2915452E-02
    1      -14.670937   1.000000
    2      -14.670927   1.000000
    3        5.020535   0.000000
    4        5.020571   0.000000
    5        7.733007   0.000000
    6        7.733029   0.000000
    7       13.480392   0.000000
    8       13.480436   0.000000
    9       14.825917   0.000000
   10       14.825929   0.000000
   11       22.746894   0.000000
   12       22.746915   0.000000
 
 -0.1428571E+00  0.4285714E+00 -0.1387779E-16  0.2915452E-02
    1      -14.805948   1.000000
    2      -14.805939   1.000000
    3        3.602909   0.000000
    4        3.602949   0.000000
    5        9.305833   0.000000
    6        9.305848   0.000000
    7       16.251407   0.000000
    8       16.251438   0.000000
    9       17.052136   0.000000
   10       17.052145   0.000000
   11       21.266393   0.000000
   12       21.266438   0.000000
 
  0.0000000E+00 -0.4285714E+00 -0.2775558E-16  0.2915452E-02
    1      -14.919027   1.000000
    2      -14.919018   1.000000
    3        3.135086   0.000000
    4        3.135126   0.000000
    5       10.405509   0.000000
    6       10.405524   0.000000
    7       18.540360   0.000000
    8       18.540363   0.000000
    9       18.540702   0.000000
   10       18.540706   0.000000
   11       22.290933   0.000000
   12       22.290953   0.000000
 
  0.1428571E+00 -0.4285714E+00  0.1387779E-16  0.2915452E-02
    1      -14.805948   1.000000
    2      -14.805939   1.000000
    3        3.602909   0.000000
    4        3.602949   0.000000
    5        9.305833   0.000000
    6        9.305848   0.000000
    7       16.251407   0.000000
    8       16.251438   0.000000
    9       17.052136   0.000000
   10       17.052145   0.000000
   11       21.266393   0.000000
   12       21.266438   0.000000
 
  0.2857143E+00 -0.4285714E+00  0.1387779E-16  0.2915452E-02
    1      -14.670937   1.000000
    2      -14.670927   1.000000
    3        5.020535   0.000000
    4        5.020571   0.000000
    5        7.733007   0.000000
    6        7.733029   0.000000
    7       13.480392   0.000000
    8       13.480436   0.000000
    9       14.825917   0.000000
   10       14.825929   0.000000
   11       22.746894   0.000000
   12       22.746915   0.000000
 
  0.4285714E+00 -0.4285714E+00 -0.7110042E-17  0.2915452E-02
    1      -14.617018   1.000000
    2      -14.617008   1.000000
    3        5.352084   0.000000
    4        5.352100   0.000000
    5        8.582932   0.000000
    6        8.582989   0.000000
    7       12.374023   0.000000
    8       12.374058   0.000000
    9       13.564543   0.000000
   10       13.564555   0.000000
   11       18.774515   0.000000
   12       18.774532   0.000000
 
 -0.4285714E+00 -0.4285714E+00 -0.5551115E-16  0.2915452E-02
    1      -14.678650   1.000000
    2      -14.678640   1.000000
    3        4.655694   0.000000
    4        4.655716   0.000000
    5       10.890028   0.000000
    6       10.890103   0.000000
    7       13.384389   0.000000
    8       13.384392   0.000000
    9       13.384598   0.000000
   10       13.384601   0.000000
   11       15.517544   0.000000
   12       15.517564   0.000000
 
 -0.2857143E+00 -0.4285714E+00 -0.8326673E-16  0.2915452E-02
    1      -14.821381   1.000000
    2      -14.821372   1.000000
    3        4.171934   0.000000
    4        4.171965   0.000000
    5       10.848467   0.000000
    6       10.848493   0.000000
    7       13.992554   0.000000
    8       13.992600   0.000000
    9       14.293648   0.000000
   10       14.293660   0.000000
   11       19.487811   0.000000
   12       19.487829   0.000000
 
 -0.1428571E+00 -0.4285714E+00 -0.2775558E-16  0.2915452E-02
    1      -14.930168   1.000000
    2      -14.930158   1.000000
    3        3.536425   0.000000
    4        3.536464   0.000000
    5       10.372724   0.000000
    6       10.372740   0.000000
    7       16.234061   0.000000
    8       16.234071   0.000000
    9       17.232271   0.000000
   10       17.232310   0.000000
   11       21.227784   0.000000
   12       21.227810   0.000000
 
  0.0000000E+00 -0.2857143E+00  0.0000000E+00  0.2915452E-02
    1      -15.263904   1.000000
    2      -15.263896   1.000000
    3        3.330809   0.000000
    4        3.330847   0.000000
    5       12.724481   0.000000
    6       12.724496   0.000000
    7       18.818676   0.000000
    8       18.818681   0.000000
    9       18.818984   0.000000
   10       18.818989   0.000000
   11       24.108086   0.000000
   12       24.108091   0.000000
 
  0.1428571E+00 -0.2857143E+00  0.6938894E-17  0.2915452E-02
    1      -15.037644   1.000000
    2      -15.037635   1.000000
    3        3.498225   0.000000
    4        3.498264   0.000000
    5       10.894943   0.000000
    6       10.894958   0.000000
    7       16.296169   0.000000
    8       16.296191   0.000000
    9       18.774054   0.000000
   10       18.774061   0.000000
   11       22.188076   0.000000
   12       22.188137   0.000000
 
  0.2857143E+00 -0.2857143E+00  0.1640708E-16  0.2915452E-02
    1      -14.779706   1.000000
    2      -14.779696   1.000000
    3        4.389843   0.000000
    4        4.389882   0.000000
    5        8.344707   0.000000
    6        8.344722   0.000000
    7       14.312582   0.000000
    8       14.312620   0.000000
    9       16.409398   0.000000
   10       16.409408   0.000000
   11       22.687480   0.000000
   12       22.687525   0.000000
 
  0.4285714E+00 -0.2857143E+00  0.2081668E-16  0.2915452E-02
    1      -14.670937   1.000000
    2      -14.670927   1.000000
    3        5.020536   0.000000
    4        5.020571   0.000000
    5        7.733007   0.000000
    6        7.733029   0.000000
    7       13.480392   0.000000
    8       13.480436   0.000000
    9       14.825917   0.000000
   10       14.825929   0.000000
   11       22.746894   0.000000
   12       22.746915   0.000000
 
 -0.4285714E+00 -0.2857143E+00  0.2775558E-16  0.2915452E-02
    1      -14.821381   1.000000
    2      -14.821372   1.000000
    3        4.171934   0.000000
    4        4.171965   0.000000
    5       10.848467   0.000000
    6       10.848494   0.000000
    7       13.992554   0.000000
    8       13.992600   0.000000
    9       14.293648   0.000000
   10       14.293660   0.000000
   11       19.487811   0.000000
   12       19.487829   0.000000
 
 -0.2857143E+00 -0.2857143E+00 -0.8326673E-16  0.2915452E-02
    1      -15.097420   1.000000
    2      -15.097412   1.000000
    3        3.717251   0.000000
    4        3.717285   0.000000
    5       14.843681   0.000000
    6       14.843685   0.000000
    7       14.843904   0.000000
    8       14.843907   0.000000
    9       15.785104   0.000000
   10       15.785163   0.000000
   11       17.029489   0.000000
   12       17.029509   0.000000
 
 -0.1428571E+00 -0.2857143E+00  0.0000000E+00  0.2915452E-02
    1      -15.295854   1.000000
    2      -15.295846   1.000000
    3        3.502911   0.000000
    4        3.502948   0.000000
    5       13.695956   0.000000
    6       13.695971   0.000000
    7       16.447746   0.000000
    8       16.447757   0.000000
    9       19.382342   0.000000
   10       19.382384   0.000000
   11       21.116658   0.000000
   12       21.116672   0.000000
 
  0.0000000E+00 -0.1428571E+00  0.0000000E+00  0.2915452E-02
    1      -15.634158   1.000000
    2      -15.634152   1.000000
    3        3.630842   0.000000
    4        3.630880   0.000000
    5       16.929242   0.000000
    6       16.929255   0.000000
    7       19.750617   0.000000
    8       19.750622   0.000000
    9       19.750940   0.000000
   10       19.750945   0.000000
   11       24.050885   0.000000
   12       24.050906   0.000000
 
  0.1428571E+00 -0.1428571E+00 -0.3358555E-17  0.2915452E-02
    1      -15.405114   1.000000
    2      -15.405106   1.000000
    3        3.506695   0.000000
    4        3.506733   0.000000
    5       14.252752   0.000000
    6       14.252766   0.000000
    7       17.245583   0.000000
    8       17.245597   0.000000
    9       20.648883   0.000000
   10       20.648886   0.000000
   11       24.422457   0.000000
   12       24.422467   0.000000
 
  0.2857143E+00 -0.1428571E+00  0.5551115E-16  0.2915452E-02
    1      -15.037644   1.000000
    2      -15.037635   1.000000
    3        3.498226   0.000000
    4        3.498264   0.000000
    5       10.894943   0.000000
    6       10.894958   0.000000
    7       16.296169   0.000000
    8       16.296191   0.000000
    9       18.774054   0.000000
   10       18.774061   0.000000
   11       22.188076   0.000000
   12       22.188138   0.000000
 
  0.4285714E+00 -0.1428571E+00 -0.1387779E-16  0.2915452E-02
    1      -14.805948   1.000000
    2      -14.805939   1.000000
    3        3.602909   0.000000
    4        3.602948   0.000000
    5        9.305833   0.000000
    6        9.305848   0.000000
    7       16.251407   0.000000
    8       16.251438   0.000000
    9       17.052136   0.000000
   10       17.052145   0.000000
   11       21.266393   0.000000
   12       21.266438   0.000000
 
 -0.4285714E+00 -0.1428571E+00  0.2775558E-16  0.2915452E-02
    1      -14.930168   1.000000
    2      -14.930158   1.000000
    3        3.536425   0.000000
    4        3.536463   0.000000
    5       10.372724   0.000000
    6       10.372740   0.000000
    7       16.234061   0.000000
    8       16.234071   0.000000
    9       17.232271   0.000000
   10       17.232310   0.000000
   11       21.227783   0.000000
   12       21.227810   0.000000
 
 -0.2857143E+00 -0.1428571E+00 -0.2775558E-16  0.2915452E-02
    1      -15.295854   1.000000
    2      -15.295846   1.000000
    3        3.502911   0.000000
    4        3.502948   0.000000
    5       13.695956   0.000000
    6       13.695971   0.000000
    7       16.447746   0.000000
    8       16.447757   0.000000
    9       19.382342   0.000000
   10       19.382384   0.000000
   11       21.116658   0.000000
   12       21.116672   0.000000
 
 -0.1428571E+00 -0.1428571E+00 -0.1387779E-16  0.2915452E-02
    1      -15.591263   1.000000
    2      -15.591256   1.000000
    3        3.613649   0.000000
    4        3.613686   0.000000
    5       17.693942   0.000000
    6       17.693946   0.000000
    7       17.694202   0.000000
    8       17.694205   0.000000
    9       20.045107   0.000000
   10       20.045126   0.000000
   11       21.713722   0.000000
   12       21.713726   0.000000
 
  0.0000000E+00  0.0000000E+00  0.1428571E+00  0.2915452E-02
    1      -15.634158   1.000000
    2      -15.634152   1.000000
    3        3.630842   0.000000
    4        3.630880   0.000000
    5       16.929242   0.000000
    6       16.929255   0.000000
    7       19.750617   0.000000
    8       19.750622   0.000000
    9       19.750940   0.000000
   10       19.750945   0.000000
   11       24.050884   0.000000
   12       24.050905   0.000000
 
  0.1428571E+00  0.1387779E-16  0.1428571E+00  0.2915452E-02
    1      -15.591263   1.000000
    2      -15.591256   1.000000
    3        3.613649   0.000000
    4        3.613686   0.000000
    5       17.693943   0.000000
    6       17.693945   0.000000
    7       17.694203   0.000000
    8       17.694205   0.000000
    9       20.045107   0.000000
   10       20.045126   0.000000
   11       21.713721   0.000000
   12       21.713726   0.000000
 
  0.2857143E+00  0.5551115E-16  0.1428571E+00  0.2915452E-02
    1      -15.295854   1.000000
    2      -15.295846   1.000000
    3        3.502911   0.000000
    4        3.502948   0.000000
    5       13.695956   0.000000
    6       13.695971   0.000000
    7       16.447746   0.000000
    8       16.447758   0.000000
    9       19.382342   0.000000
   10       19.382384   0.000000
   11       21.116658   0.000000
   12       21.116671   0.000000
 
  0.4285714E+00  0.2775558E-16  0.1428571E+00  0.2915452E-02
    1      -14.930168   1.000000
    2      -14.930158   1.000000
    3        3.536425   0.000000
    4        3.536463   0.000000
    5       10.372724   0.000000
    6       10.372740   0.000000
    7       16.234061   0.000000
    8       16.234071   0.000000
    9       17.232271   0.000000
   10       17.232310   0.000000
   11       21.227784   0.000000
   12       21.227810   0.000000
 
 -0.4285714E+00 -0.2775558E-16  0.1428571E+00  0.2915452E-02
    1      -14.805948   1.000000
    2      -14.805939   1.000000
    3        3.602909   0.000000
    4        3.602948   0.000000
    5        9.305833   0.000000
    6        9.305848   0.000000
    7       16.251407   0.000000
    8       16.251438   0.000000
    9       17.052136   0.000000
   10       17.052145   0.000000
   11       21.266393   0.000000
   12       21.266438   0.000000
 
 -0.2857143E+00 -0.5551115E-16  0.1428571E+00  0.2915452E-02
    1      -15.037644   1.000000
    2      -15.037635   1.000000
    3        3.498226   0.000000
    4        3.498264   0.000000
    5       10.894943   0.000000
    6       10.894958   0.000000
    7       16.296169   0.000000
    8       16.296191   0.000000
    9       18.774054   0.000000
   10       18.774061   0.000000
   11       22.188076   0.000000
   12       22.188137   0.000000
 
 -0.1428571E+00 -0.1387779E-16  0.1428571E+00  0.2915452E-02
    1      -15.405114   1.000000
    2      -15.405106   1.000000
    3        3.506695   0.000000
    4        3.506733   0.000000
    5       14.252752   0.000000
    6       14.252766   0.000000
    7       17.245582   0.000000
    8       17.245597   0.000000
    9       20.648883   0.000000
   10       20.648886   0.000000
   11       24.379155   0.000000
   12       24.422471   0.000000
 
  0.0000000E+00  0.1428571E+00  0.1428571E+00  0.2915452E-02
    1      -15.591263   1.000000
    2      -15.591256   1.000000
    3        3.613649   0.000000
    4        3.613686   0.000000
    5       17.693939   0.000000
    6       17.693949   0.000000
    7       17.694199   0.000000
    8       17.694208   0.000000
    9       20.045107   0.000000
   10       20.045126   0.000000
   11       21.713721   0.000000
   12       21.713726   0.000000
 
  0.1428571E+00  0.1428571E+00  0.1428571E+00  0.2915452E-02
    1      -15.634157   1.000000
    2      -15.634151   1.000000
    3        3.630844   0.000000
    4        3.630881   0.000000
    5       16.929238   0.000000
    6       16.929254   0.000000
    7       19.750619   0.000000
    8       19.750625   0.000000
    9       19.750942   0.000000
   10       19.750947   0.000000
   11       24.050880   0.000000
   12       24.050902   0.000000
 
  0.2857143E+00  0.1428571E+00  0.1428571E+00  0.2915452E-02
    1      -15.405113   1.000000
    2      -15.405106   1.000000
    3        3.506697   0.000000
    4        3.506733   0.000000
    5       14.252752   0.000000
    6       14.252766   0.000000
    7       17.245578   0.000000
    8       17.245596   0.000000
    9       20.648885   0.000000
   10       20.648889   0.000000
   11       24.395141   0.000000
   12       24.418368   0.000000
 
  0.4285714E+00  0.1428571E+00  0.1428571E+00  0.2915452E-02
    1      -15.037644   1.000000
    2      -15.037635   1.000000
    3        3.498226   0.000000
    4        3.498264   0.000000
    5       10.894944   0.000000
    6       10.894959   0.000000
    7       16.296162   0.000000
    8       16.296189   0.000000
    9       18.774056   0.000000
   10       18.774063   0.000000
   11       22.188074   0.000000
   12       22.188136   0.000000
 
 -0.4285714E+00  0.1428571E+00  0.1428571E+00  0.2915452E-02
    1      -14.805948   1.000000
    2      -14.805939   1.000000
    3        3.602909   0.000000
    4        3.602948   0.000000
    5        9.305834   0.000000
    6        9.305848   0.000000
    7       16.251400   0.000000
    8       16.251436   0.000000
    9       17.052138   0.000000
   10       17.052147   0.000000
   11       21.266393   0.000000
   12       21.266436   0.000000
 
 -0.2857143E+00  0.1428571E+00  0.1428571E+00  0.2915452E-02
    1      -14.930168   1.000000
    2      -14.930158   1.000000
    3        3.536425   0.000000
    4        3.536463   0.000000
    5       10.372725   0.000000
    6       10.372740   0.000000
    7       16.234064   0.000000
    8       16.234074   0.000000
    9       17.232265   0.000000
   10       17.232308   0.000000
   11       21.227784   0.000000
   12       21.227809   0.000000
 
 -0.1428571E+00  0.1428571E+00  0.1428571E+00  0.2915452E-02
    1      -15.295853   1.000000
    2      -15.295846   1.000000
    3        3.502911   0.000000
    4        3.502948   0.000000
    5       13.695956   0.000000
    6       13.695971   0.000000
    7       16.447750   0.000000
    8       16.447759   0.000000
    9       19.382338   0.000000
   10       19.382383   0.000000
   11       21.116661   0.000000
   12       21.116671   0.000000
 
  0.0000000E+00  0.2857143E+00  0.1428571E+00  0.2915452E-02
    1      -15.295854   1.000000
    2      -15.295846   1.000000
    3        3.502911   0.000000
    4        3.502948   0.000000
    5       13.695956   0.000000
    6       13.695971   0.000000
    7       16.447746   0.000000
    8       16.447757   0.000000
    9       19.382343   0.000000
   10       19.382384   0.000000
   11       21.116658   0.000000
   12       21.116672   0.000000
 
  0.1428571E+00  0.2857143E+00  0.1428571E+00  0.2915452E-02
    1      -15.405113   1.000000
    2      -15.405106   1.000000
    3        3.506697   0.000000
    4        3.506734   0.000000
    5       14.252752   0.000000
    6       14.252766   0.000000
    7       17.245578   0.000000
    8       17.245596   0.000000
    9       20.648885   0.000000
   10       20.648889   0.000000
   11       24.415910   0.000000