   1   1   0   0
  0.5789729E+02  0.4342346E-09  0.4342346E-09  0.4342346E-09  0.1000000E-15
  1.000000000000000E-004
  CAR 
 Og_FCC                                  
     18.68864331    -30.29258110  301      1.91257395      1.00000000
    -30.293  0.0000E+00  0.0000E+00
    -30.129  0.0000E+00  0.0000E+00
    -29.966  0.0000E+00  0.0000E+00
    -29.803  0.0000E+00  0.0000E+00
    -29.639  0.0000E+00  0.0000E+00
    -29.476  0.0000E+00  0.0000E+00
    -29.313  0.0000E+00  0.0000E+00
    -29.150  0.0000E+00  0.0000E+00
    -28.986  0.0000E+00  0.0000E+00
    -28.823  0.0000E+00  0.0000E+00
    -28.660  0.0000E+00  0.0000E+00
    -28.497  0.0000E+00  0.0000E+00
    -28.333  0.0000E+00  0.0000E+00
    -28.170  0.0000E+00  0.0000E+00
    -28.007  0.0000E+00  0.1000E+02
    -27.844  0.0000E+00  0.1000E+02
    -27.680  0.0000E+00  0.1000E+02
    -27.517  0.0000E+00  0.1000E+02
    -27.354  0.0000E+00  0.1000E+02
    -27.190  0.0000E+00  0.1000E+02
    -27.027  0.0000E+00  0.1000E+02
    -26.864  0.0000E+00  0.1000E+02
    -26.701  0.0000E+00  0.1000E+02
    -26.537  0.0000E+00  0.1000E+02
    -26.374  0.0000E+00  0.1000E+02
    -26.211  0.0000E+00  0.1000E+02
    -26.048  0.0000E+00  0.1000E+02
    -25.884  0.0000E+00  0.1000E+02
    -25.721  0.0000E+00  0.1000E+02
    -25.558  0.0000E+00  0.1000E+02
    -25.394  0.0000E+00  0.1000E+02
    -25.231  0.0000E+00  0.1000E+02
    -25.068  0.0000E+00  0.1000E+02
    -24.905  0.0000E+00  0.1000E+02
    -24.741  0.0000E+00  0.1000E+02
    -24.578  0.0000E+00  0.1000E+02
    -24.415  0.0000E+00  0.1000E+02
    -24.252  0.0000E+00  0.1000E+02
    -24.088  0.0000E+00  0.1000E+02
    -23.925  0.0000E+00  0.1000E+02
    -23.762  0.0000E+00  0.1000E+02
    -23.598  0.0000E+00  0.1000E+02
    -23.435  0.0000E+00  0.1000E+02
    -23.272  0.0000E+00  0.1000E+02
    -23.109  0.0000E+00  0.1000E+02
    -22.945  0.0000E+00  0.1000E+02
    -22.782  0.0000E+00  0.1000E+02
    -22.619  0.0000E+00  0.1000E+02
    -22.456  0.0000E+00  0.1000E+02
    -22.292  0.0000E+00  0.1000E+02
    -22.129  0.0000E+00  0.1000E+02
    -21.966  0.0000E+00  0.1000E+02
    -21.803  0.0000E+00  0.1000E+02
    -21.639  0.0000E+00  0.1000E+02
    -21.476  0.0000E+00  0.1000E+02
    -21.313  0.0000E+00  0.1000E+02
    -21.149  0.0000E+00  0.1000E+02
    -20.986  0.4134E+00  0.1061E+02
    -20.823  0.0000E+00  0.1200E+02
    -20.660  0.0000E+00  0.1200E+02
    -20.496  0.0000E+00  0.1200E+02
    -20.333  0.0000E+00  0.1200E+02
    -20.170  0.0000E+00  0.1200E+02
    -20.007  0.0000E+00  0.1200E+02
    -19.843  0.0000E+00  0.1200E+02
    -19.680  0.0000E+00  0.1200E+02
    -19.517  0.0000E+00  0.1200E+02
    -19.353  0.0000E+00  0.1200E+02
    -19.190  0.0000E+00  0.1200E+02
    -19.027  0.0000E+00  0.1200E+02
    -18.864  0.0000E+00  0.1200E+02
    -18.700  0.0000E+00  0.1200E+02
    -18.537  0.0000E+00  0.1200E+02
    -18.374  0.0000E+00  0.1200E+02
    -18.211  0.0000E+00  0.1200E+02
    -18.047  0.0000E+00  0.1200E+02
    -17.884  0.0000E+00  0.1200E+02
    -17.721  0.0000E+00  0.1200E+02
    -17.557  0.0000E+00  0.1200E+02
    -17.394  0.0000E+00  0.1200E+02
    -17.231  0.0000E+00  0.1200E+02
    -17.068  0.0000E+00  0.1200E+02
    -16.904  0.0000E+00  0.1200E+02
    -16.741  0.0000E+00  0.1200E+02
    -16.578  0.0000E+00  0.1200E+02
    -16.415  0.0000E+00  0.1200E+02
    -16.251  0.0000E+00  0.1200E+02
    -16.088  0.0000E+00  0.1200E+02
    -15.925  0.0000E+00  0.1200E+02
    -15.761  0.0000E+00  0.1200E+02
    -15.598  0.0000E+00  0.1200E+02
    -15.435  0.0000E+00  0.1200E+02
    -15.272  0.0000E+00  0.1200E+02
    -15.108  0.0000E+00  0.1200E+02
    -14.945  0.0000E+00  0.1200E+02
    -14.782  0.0000E+00  0.1200E+02
    -14.619  0.0000E+00  0.1200E+02
    -14.455  0.0000E+00  0.1200E+02
    -14.292  0.0000E+00  0.1200E+02
    -14.129  0.0000E+00  0.1200E+02
    -13.966  0.0000E+00  0.1200E+02
    -13.802  0.0000E+00  0.1200E+02
    -13.639  0.0000E+00  0.1200E+02
    -13.476  0.0000E+00  0.1200E+02
    -13.312  0.0000E+00  0.1200E+02
    -13.149  0.0000E+00  0.1200E+02
    -12.986  0.0000E+00  0.1200E+02
    -12.823  0.0000E+00  0.1200E+02
    -12.659  0.0000E+00  0.1200E+02
    -12.496  0.0000E+00  0.1200E+02
    -12.333  0.0000E+00  0.1200E+02
    -12.170  0.0000E+00  0.1200E+02
    -12.006  0.0000E+00  0.1200E+02
    -11.843  0.0000E+00  0.1200E+02
    -11.680  0.0000E+00  0.1200E+02
    -11.516  0.0000E+00  0.1200E+02
    -11.353  0.0000E+00  0.1200E+02
    -11.190  0.0000E+00  0.1200E+02
    -11.027  0.0000E+00  0.1200E+02
    -10.863  0.0000E+00  0.1200E+02
    -10.700  0.0000E+00  0.1200E+02
    -10.537  0.0000E+00  0.1200E+02
    -10.374  0.0000E+00  0.1200E+02
    -10.210  0.0000E+00  0.1200E+02
    -10.047  0.0000E+00  0.1200E+02
     -9.884  0.0000E+00  0.1200E+02
     -9.720  0.0000E+00  0.1200E+02
     -9.557  0.0000E+00  0.1200E+02
     -9.394  0.0000E+00  0.1200E+02
     -9.231  0.0000E+00  0.1200E+02
     -9.067  0.0000E+00  0.1200E+02
     -8.904  0.0000E+00  0.1200E+02
     -8.741  0.0000E+00  0.1200E+02
     -8.578  0.0000E+00  0.1200E+02
     -8.414  0.0000E+00  0.1200E+02
     -8.251  0.0000E+00  0.1200E+02
     -8.088  0.0000E+00  0.1200E+02
     -7.924  0.0000E+00  0.1200E+02
     -7.761  0.0000E+00  0.1200E+02
     -7.598  0.0000E+00  0.1200E+02
     -7.435  0.0000E+00  0.1200E+02
     -7.271  0.0000E+00  0.1200E+02
     -7.108  0.0000E+00  0.1200E+02
     -6.945  0.0000E+00  0.1200E+02
     -6.782  0.0000E+00  0.1200E+02
     -6.618  0.0000E+00  0.1200E+02
     -6.455  0.0000E+00  0.1200E+02
     -6.292  0.0000E+00  0.1200E+02
     -6.129  0.0000E+00  0.1200E+02
     -5.965  0.0000E+00  0.1200E+02
     -5.802  0.0000E+00  0.1200E+02
     -5.639  0.0000E+00  0.1200E+02
     -5.475  0.0000E+00  0.1200E+02
     -5.312  0.0000E+00  0.1200E+02
     -5.149  0.0000E+00  0.1200E+02
     -4.986  0.0000E+00  0.1200E+02
     -4.822  0.0000E+00  0.1200E+02
     -4.659  0.0000E+00  0.1200E+02
     -4.496  0.0000E+00  0.1200E+02
     -4.333  0.0000E+00  0.1200E+02
     -4.169  0.0000E+00  0.1200E+02
     -4.006  0.0000E+00  0.1200E+02
     -3.843  0.0000E+00  0.1200E+02
     -3.679  0.0000E+00  0.1200E+02
     -3.516  0.0000E+00  0.1200E+02
     -3.353  0.0000E+00  0.1200E+02
     -3.190  0.0000E+00  0.1200E+02
     -3.026  0.0000E+00  0.1200E+02
     -2.863  0.0000E+00  0.1200E+02
     -2.700  0.0000E+00  0.1200E+02
     -2.537  0.0000E+00  0.1200E+02
     -2.373  0.0000E+00  0.1200E+02
     -2.210  0.0000E+00  0.1200E+02
     -2.047  0.0000E+00  0.1200E+02
     -1.883  0.0000E+00  0.1200E+02
     -1.720  0.0000E+00  0.1200E+02
     -1.557  0.0000E+00  0.1200E+02
     -1.394  0.0000E+00  0.1200E+02
     -1.230  0.0000E+00  0.1204E+02
     -1.067  0.0000E+00  0.1204E+02
     -0.904  0.0000E+00  0.1229E+02
     -0.741  0.0000E+00  0.1281E+02
     -0.577  0.0000E+00  0.1342E+02
     -0.414  0.0000E+00  0.1375E+02
     -0.251  0.0000E+00  0.1386E+02
     -0.087  0.0000E+00  0.1397E+02
      0.076  0.0000E+00  0.1419E+02
      0.239  0.0000E+00  0.1431E+02
      0.402  0.0000E+00  0.1453E+02
      0.566  0.0000E+00  0.1499E+02
      0.729  0.0000E+00  0.1527E+02
      0.892  0.1361E+01  0.1594E+02
      1.055  0.0000E+00  0.1605E+02
      1.219  0.0000E+00  0.1671E+02
      1.382  0.0000E+00  0.1716E+02
      1.545  0.0000E+00  0.1756E+02
      1.708  0.1669E-12  0.1771E+02
      1.872  0.0000E+00  0.1800E+02
      2.035  0.0000E+00  0.1800E+02
      2.198  0.0000E+00  0.1800E+02
      2.362  0.0000E+00  0.1800E+02
      2.525  0.0000E+00  0.1800E+02
      2.688  0.0000E+00  0.1800E+02
      2.851  0.0000E+00  0.1800E+02
      3.015  0.0000E+00  0.1800E+02
      3.178  0.0000E+00  0.1800E+02
      3.341  0.0000E+00  0.1800E+02
      3.504  0.0000E+00  0.1800E+02
      3.668  0.0000E+00  0.1800E+02
      3.831  0.5671E-01  0.1801E+02
      3.994  0.0000E+00  0.1801E+02
      4.158  0.0000E+00  0.1801E+02
      4.321  0.0000E+00  0.1801E+02
      4.484  0.0000E+00  0.1801E+02
      4.647  0.0000E+00  0.1801E+02
      4.811  0.0000E+00  0.1801E+02
      4.974  0.0000E+00  0.1801E+02
      5.137  0.0000E+00  0.1801E+02
      5.300  0.0000E+00  0.1808E+02
      5.464  0.0000E+00  0.1808E+02
      5.627  0.0000E+00  0.1808E+02
      5.790  0.0000E+00  0.1808E+02
      5.954  0.0000E+00  0.1814E+02
      6.117  0.0000E+00  0.1814E+02
      6.280  0.0000E+00  0.1821E+02
      6.443  0.0000E+00  0.1825E+02
      6.607  0.0000E+00  0.1839E+02
      6.770  0.0000E+00  0.1839E+02
      6.933  0.0000E+00  0.1839E+02
      7.096  0.0000E+00  0.1889E+02
      7.260  0.0000E+00  0.1889E+02
      7.423  0.0000E+00  0.1933E+02
      7.586  0.0000E+00  0.1933E+02
      7.750  0.0000E+00  0.1956E+02
      7.913  0.0000E+00  0.1958E+02
      8.076  0.0000E+00  0.1981E+02
      8.239  0.0000E+00  0.1986E+02
      8.403  0.0000E+00  0.1986E+02
      8.566  0.0000E+00  0.1986E+02
      8.729  0.0000E+00  0.2053E+02
      8.892  0.0000E+00  0.2053E+02
      9.056  0.0000E+00  0.2053E+02
      9.219  0.0000E+00  0.2064E+02
      9.382  0.0000E+00  0.2158E+02
      9.545  0.0000E+00  0.2181E+02
      9.709  0.0000E+00  0.2192E+02
      9.872  0.0000E+00  0.2214E+02
     10.035  0.0000E+00  0.2221E+02
     10.199  0.0000E+00  0.2232E+02
     10.362  0.0000E+00  0.2244E+02
     10.525  0.0000E+00  0.2244E+02
     10.688  0.0000E+00  0.2251E+02
     10.852  0.0000E+00  0.2271E+02
     11.015  0.1441E+00  0.2301E+02
     11.178  0.0000E+00  0.2369E+02
     11.341  0.0000E+00  0.2451E+02
     11.505  0.0000E+00  0.2481E+02
     11.668  0.0000E+00  0.2525E+02
     11.831  0.2571E-10  0.2536E+02
     11.995  0.0000E+00  0.2569E+02
     12.158  0.0000E+00  0.2569E+02
     12.321  0.0000E+00  0.2581E+02
     12.484  0.0000E+00  0.2588E+02
     12.648  0.0000E+00  0.2603E+02
     12.811  0.0000E+00  0.2625E+02
     12.974  0.1135E-01  0.2647E+02
     13.137  0.0000E+00  0.2714E+02
     13.301  0.0000E+00  0.2773E+02
     13.464  0.1069E+00  0.2790E+02
     13.627  0.1361E+01  0.2856E+02
     13.791  0.0000E+00  0.2862E+02
     13.954  0.0000E+00  0.2876E+02
     14.117  0.0000E+00  0.2920E+02
     14.280  0.0000E+00  0.2970E+02
     14.444  0.0000E+00  0.2998E+02
     14.607  0.6935E-03  0.3006E+02
     14.770  0.0000E+00  0.3061E+02
     14.933  0.0000E+00  0.3067E+02
     15.097  0.0000E+00  0.3100E+02
     15.260  0.0000E+00  0.3100E+02
     15.423  0.0000E+00  0.3106E+02
     15.586  0.0000E+00  0.3150E+02
     15.750  0.0000E+00  0.3150E+02
     15.913  0.0000E+00  0.3150E+02
     16.076  0.0000E+00  0.3150E+02
     16.240  0.0000E+00  0.3178E+02
     16.403  0.0000E+00  0.3189E+02
     16.566  0.0000E+00  0.3200E+02
     16.729  0.0000E+00  0.3200E+02
     16.893  0.0000E+00  0.3200E+02
     17.056  0.0000E+00  0.3200E+02
     17.219  0.0000E+00  0.3200E+02
     17.382  0.0000E+00  0.3200E+02
     17.546  0.0000E+00  0.3200E+02
     17.709  0.0000E+00  0.3200E+02
     17.872  0.0000E+00  0.3200E+02
     18.036  0.0000E+00  0.3200E+02
     18.199  0.0000E+00  0.3200E+02
     18.362  0.0000E+00  0.3200E+02
     18.525  0.0000E+00  0.3200E+02
     18.689  0.0000E+00  0.3200E+02
