    1    1    1    1
  0.5789729E+02  0.4342346E-09  0.4342346E-09  0.4342346E-09  0.1000000E-15
  1.000000000000000E-004
  CAR 
 Og_FCC                                  
     18    112     16
 
  0.0000000E+00  0.0000000E+00  0.0000000E+00  0.4629630E-02
    1      -28.060447   1.000000
    2      -28.060447   1.000000
    3      -28.053755   1.000000
    4      -28.053755   1.000000
    5      -28.053755   1.000000
    6      -21.083007   1.000000
    7        1.861333   1.000000
    8        1.861333   1.000000
    9        1.861333   1.000000
   10        3.827415   0.000000
   11       11.014195   0.000000
   12       11.014195   0.000000
   13       11.014195   0.000000
   14       11.284465   0.000000
   15       13.517953   0.000000
   16       13.517953   0.000000
 
  0.1666667E+00  0.1566927E-17  0.2081668E-16  0.9259259E-02
    1      -28.042589   1.000000
    2      -28.042589   1.000000
    3      -28.035062   1.000000
    4      -28.035062   1.000000
    5      -28.033474   1.000000
    6      -21.058602   1.000000
    7        0.557349   1.000000
    8        1.753688   1.000000
    9        1.753688   1.000000
   10        5.253172   0.000000
   11        9.971544   0.000000
   12       11.221529   0.000000
   13       11.221529   0.000000
   14       12.328199   0.000000
   15       12.574802   0.000000
   16       12.574802   0.000000
 
  0.3333333E+00  0.3133854E-17  0.0000000E+00  0.9259259E-02
    1      -28.047756   1.000000
    2      -28.046354   1.000000
    3      -28.046354   1.000000
    4      -28.041543   1.000000
    5      -28.041543   1.000000
    6      -21.010001   1.000000
    7       -0.765017   1.000000
    8        1.551863   1.000000
    9        1.551863   1.000000
   10        6.228893   0.000000
   11       10.816011   0.000000
   12       10.816011   0.000000
   13       10.944485   0.000000
   14       11.459413   0.000000
   15       13.380924   0.000000
   16       13.380924   0.000000
 
  0.5000000E+00  0.4700780E-17  0.5551115E-16  0.4629630E-02
    1      -28.061696   1.000000
    2      -28.061695   1.000000
    3      -28.059847   1.000000
    4      -28.047157   1.000000
    5      -28.047156   1.000000
    6      -20.985393   1.000000
    7       -1.245381   1.000000
    8        1.456893   1.000000
    9        1.456893   1.000000
   10        6.293843   0.000000
   11       10.537661   0.000000
   12       10.537661   0.000000
   13       10.874183   0.000000
   14       13.265533   0.000000
   15       14.534343   0.000000
   16       14.534343   0.000000
 
 -0.1925930E-33  0.1666667E+00 -0.6938894E-17  0.9259259E-02
    1      -28.042589   1.000000
    2      -28.042589   1.000000
    3      -28.035062   1.000000
    4      -28.035062   1.000000
    5      -28.033474   1.000000
    6      -21.058602   1.000000
    7        0.557349   1.000000
    8        1.753688   1.000000
    9        1.753688   1.000000
   10        5.253172   0.000000
   11        9.971544   0.000000
   12       11.221529   0.000000
   13       11.221529   0.000000
   14       12.328199   0.000000
   15       12.574802   0.000000
   16       12.574802   0.000000
 
  0.1666667E+00  0.1666667E+00  0.2775558E-16  0.9259259E-02
    1      -28.053070   1.000000
    2      -28.044723   1.000000
    3      -28.044070   1.000000
    4      -28.044070   1.000000
    5      -28.042539   1.000000
    6      -21.050628   1.000000
    7        0.534137   1.000000
    8        1.521258   1.000000
    9        1.521258   1.000000
   10        5.810415   0.000000
   11        9.312486   0.000000
   12       10.796385   0.000000
   13       11.732190   0.000000
   14       11.732190   0.000000
   15       13.642151   0.000000
   16       14.235322   0.000000
 
  0.3333333E+00  0.1666667E+00 -0.2775558E-16  0.9259259E-02
    1      -28.048568   1.000000
    2      -28.048417   1.000000
    3      -28.042613   1.000000
    4      -28.040460   1.000000
    5      -28.033519   1.000000
    6      -21.010149   1.000000
    7       -0.429904   1.000000
    8        1.206502   1.000000
    9        1.274340   1.000000
   10        7.001306   0.000000
   11        9.331453   0.000000
   12        9.782700   0.000000
   13       11.835948   0.000000
   14       12.975860   0.000000
   15       13.619520   0.000000
   16       14.256019   0.000000
 
  0.5000000E+00  0.1666667E+00  0.5551115E-16  0.9259259E-02
    1      -28.052647   1.000000
    2      -28.042292   1.000000
    3      -28.038543   1.000000
    4      -28.037495   1.000000
    5      -28.032754   1.000000
    6      -20.977206   1.000000
    7       -1.006323   1.000000
    8        0.804554   1.000000
    9        1.240713   1.000000
   10        7.291622   0.000000
   11        9.268628   0.000000
   12       11.280110   0.000000
   13       11.313536   0.000000
   14       13.152834   0.000000
   15       14.020209   0.000000
   16       14.673385   0.000000
 
 -0.3333333E+00  0.1666667E+00 -0.1387779E-16  0.9259259E-02
    1      -28.055461   1.000000
    2      -28.050721   1.000000
    3      -28.043212   1.000000
    4      -28.040283   1.000000
    5      -28.038251   1.000000
    6      -20.985484   1.000000
    7       -0.860582   1.000000
    8        0.689044   1.000000
    9        1.448247   1.000000
   10        7.354013   0.000000
   11        9.417555   0.000000
   12       11.093564   0.000000
   13       11.095522   0.000000
   14       13.007255   0.000000
   15       13.509767   0.000000
   16       14.176387   0.000000
 
 -0.1666667E+00  0.1666667E+00 -0.1724910E-16  0.9259259E-02
    1      -28.046045   1.000000
    2      -28.039115   1.000000
    3      -28.038230   1.000000
    4      -28.033936   1.000000
    5      -28.030418   1.000000
    6      -21.026323   1.000000
    7       -0.165595   1.000000
    8        1.107798   1.000000
    9        1.713596   1.000000
   10        6.577578   0.000000
   11        9.696030   0.000000
   12       10.320611   0.000000
   13       11.474436   0.000000
   14       11.639961   0.000000
   15       13.607430   0.000000
   16       13.936965   0.000000
 
  0.3851860E-33  0.3333333E+00 -0.1387779E-16  0.9259259E-02
    1      -28.047756   1.000000
    2      -28.046354   1.000000
    3      -28.046354   1.000000
    4      -28.041543   1.000000
    5      -28.041543   1.000000
    6      -21.010001   1.000000
    7       -0.765017   1.000000
    8        1.551863   1.000000
    9        1.551863   1.000000
   10        6.228893   0.000000
   11       10.816011   0.000000
   12       10.816011   0.000000
   13       10.944485   0.000000
   14       11.459413   0.000000
   15       13.380924   0.000000
   16       13.380924   0.000000
 
  0.1666667E+00  0.3333333E+00  0.2775558E-16  0.9259259E-02
    1      -28.048568   1.000000
    2      -28.048417   1.000000
    3      -28.042613   1.000000
    4      -28.040460   1.000000
    5      -28.033519   1.000000
    6      -21.010149   1.000000
    7       -0.429904   1.000000
    8        1.206502   1.000000
    9        1.274340   1.000000
   10        7.001306   0.000000
   11        9.331453   0.000000
   12        9.782700   0.000000
   13       11.835948   0.000000
   14       12.975860   0.000000
   15       13.619520   0.000000
   16       14.256019   0.000000
 
  0.3333333E+00  0.3333333E+00  0.2775558E-16  0.9259259E-02
    1      -28.059185   1.000000
    2      -28.052867   1.000000
    3      -28.052867   1.000000
    4      -28.052624   1.000000
    5      -28.047050   1.000000
    6      -20.986016   1.000000
    7       -0.621588   1.000000
    8        0.940214   1.000000
    9        0.940214   1.000000
   10        6.977133   0.000000
   11        8.206444   0.000000
   12       10.889828   0.000000
   13       13.280416   0.000000
   14       13.280416   0.000000
   15       14.904094   0.000000
   16       16.176666   0.000000
 
  0.5000000E+00  0.3333333E+00  0.5551115E-16  0.9259259E-02
    1      -28.051740   1.000000
    2      -28.050953   1.000000
    3      -28.049447   1.000000
    4      -28.046122   1.000000
    5      -28.040833   1.000000
    6      -20.961278   1.000000
    7       -0.810460   1.000000
    8        0.379975   1.000000
    9        0.857754   1.000000
   10        7.084676   0.000000
   11        8.691693   0.000000
   12       11.284171   0.000000
   13       13.084719   0.000000
   14       14.008873   0.000000
   15       14.995887   0.000000
   16       16.156567   0.000000
 
 -0.3333333E+00  0.3333333E+00 -0.2543834E-16  0.9259259E-02
    1      -28.051255   1.000000
    2      -28.046068   1.000000
    3      -28.044519   1.000000
    4      -28.041652   1.000000
    5      -28.035043   1.000000
    6      -20.960993   1.000000
    7       -0.437485   1.000000
    8       -0.346284   1.000000
    9        1.091293   1.000000
   10        7.602253   0.000000
   11       10.084214   0.000000
   12       11.494720   0.000000
   13       11.544357   0.000000
   14       12.262720   0.000000
   15       13.464691   0.000000
   16       16.352135   0.000000
 
 -0.1666667E+00  0.3333333E+00 -0.2775558E-16  0.9259259E-02
    1      -28.055461   1.000000
    2      -28.050721   1.000000
    3      -28.043211   1.000000
    4      -28.040283   1.000000
    5      -28.038251   1.000000
    6      -20.985484   1.000000
    7       -0.860582   1.000000
    8        0.689044   1.000000
    9        1.448247   1.000000
   10        7.354013   0.000000
   11        9.417555   0.000000
   12       11.093564   0.000000
   13       11.095522   0.000000
   14       13.007255   0.000000
   15       13.509767   0.000000
   16       14.176387   0.000000
 
  0.0000000E+00  0.5000000E+00 -0.2775558E-16  0.4629630E-02
    1      -28.061696   1.000000
    2      -28.061695   1.000000
    3      -28.059847   1.000000
    4      -28.047157   1.000000
    5      -28.047156   1.000000
    6      -20.985393   1.000000
    7       -1.245381   1.000000
    8        1.456893   1.000000
    9        1.456893   1.000000
   10        6.293843   0.000000
   11       10.537661   0.000000
   12       10.537661   0.000000
   13       10.874183   0.000000
   14       13.265533   0.000000
   15       14.534343   0.000000
   16       14.534343   0.000000
 
  0.1666667E+00  0.5000000E+00  0.1110223E-15  0.9259259E-02
    1      -28.052647   1.000000
    2      -28.042292   1.000000
    3      -28.038543   1.000000
    4      -28.037495   1.000000
    5      -28.032754   1.000000
    6      -20.977206   1.000000
    7       -1.006323   1.000000
    8        0.804554   1.000000
    9        1.240713   1.000000
   10        7.291622   0.000000
   11        9.268628   0.000000
   12       11.280110   0.000000
   13       11.313536   0.000000
   14       13.152834   0.000000
   15       14.020209   0.000000
   16       14.673385   0.000000
 
  0.3333333E+00  0.5000000E+00  0.0000000E+00  0.9259259E-02
    1      -28.051740   1.000000
    2      -28.050953   1.000000
    3      -28.049447   1.000000
    4      -28.046122   1.000000
    5      -28.040833   1.000000
    6      -20.961278   1.000000
    7       -0.810460   1.000000
    8        0.379975   1.000000
    9        0.857754   1.000000
   10        7.084676   0.000000
   11        8.691693   0.000000
   12       11.284171   0.000000
   13       13.084719   0.000000
   14       14.008873   0.000000
   15       14.995887   0.000000
   16       16.156567   0.000000
 
  0.5000000E+00  0.5000000E+00  0.0000000E+00  0.4629630E-02
    1      -28.066162   1.000000
    2      -28.051789   1.000000
    3      -28.051789   1.000000
    4      -28.048886   1.000000
    5      -28.041340   1.000000
    6      -20.953251   1.000000
    7       -1.000415   1.000000
    8        0.685637   1.000000
    9        0.685637   1.000000
   10        6.488601   0.000000
   11        7.837124   0.000000
   12       13.910919   0.000000
   13       14.370297   0.000000
   14       14.370297   0.000000
   15       15.294934   0.000000
   16       15.393111   0.000000
 
  0.0000000E+00  0.0000000E+00  0.1666667E+00  0.9259259E-02
    1      -28.042589   1.000000
    2      -28.042589   1.000000
    3      -28.035062   1.000000
    4      -28.035062   1.000000
    5      -28.033474   1.000000
    6      -21.058602   1.000000
    7        0.557349   1.000000
    8        1.753688   1.000000
    9        1.753688   1.000000
   10        5.253172   0.000000
   11        9.971544   0.000000
   12       11.221529   0.000000
   13       11.221529   0.000000
   14       12.328199   0.000000
   15       12.574802   0.000000
   16       12.574802   0.000000
 
  0.1666667E+00  0.2462172E-16  0.1666667E+00  0.9259259E-02
    1      -28.053070   1.000000
    2      -28.044723   1.000000
    3      -28.044070   1.000000
    4      -28.044070   1.000000
    5      -28.042539   1.000000
    6      -21.050628   1.000000
    7        0.534137   1.000000
    8        1.521258   1.000000
    9        1.521258   1.000000
   10        5.810415   0.000000
   11        9.312486   0.000000
   12       10.796385   0.000000
   13       11.732190   0.000000
   14       11.732190   0.000000
   15       13.642151   0.000000
   16       14.235368   0.000000
 
  0.3333333E+00 -0.1566927E-17  0.1666667E+00  0.9259259E-02
    1      -28.048568   1.000000
    2      -28.048417   1.000000
    3      -28.042613   1.000000
    4      -28.040460   1.000000
    5      -28.033519   1.000000
    6      -21.010149   1.000000
    7       -0.429904   1.000000
    8        1.206502   1.000000
    9        1.274340   1.000000
   10        7.001306   0.000000
   11        9.331453   0.000000
   12        9.782700   0.000000
   13       11.835948   0.000000
   14       12.975860   0.000000
   15       13.619520   0.000000
   16       14.256019   0.000000
 
  0.5000000E+00 -0.5551115E-32  0.1666667E+00  0.9259259E-02
    1      -28.052647   1.000000
    2      -28.042292   1.000000
    3      -28.038543   1.000000
    4      -28.037495   1.000000
    5      -28.032754   1.000000
    6      -20.977206   1.000000
    7       -1.006323   1.000000
    8        0.804554   1.000000
    9        1.240713   1.000000
   10        7.291622   0.000000
   11        9.268628   0.000000
   12       11.280110   0.000000
   13       11.313536   0.000000
   14       13.152834   0.000000
   15       14.020209   0.000000
   16       14.673385   0.000000
 
 -0.3333333E+00 -0.7834634E-17  0.1666667E+00  0.9259259E-02
    1      -28.055461   1.000000
    2      -28.050721   1.000000
    3      -28.043212   1.000000
    4      -28.040283   1.000000
    5      -28.038251   1.000000
    6      -20.985484   1.000000
    7       -0.860582   1.000000
    8        0.689044   1.000000
    9        1.448247   1.000000
   10        7.354013   0.000000
   11        9.417555   0.000000
   12       11.093564   0.000000
   13       11.095522   0.000000
   14       13.007255   0.000000
   15       13.509767   0.000000
   16       14.176387   0.000000
 
 -0.1666667E+00  0.2148787E-16  0.1666667E+00  0.9259259E-02
    1      -28.046045   1.000000
    2      -28.039115   1.000000
    3      -28.038230   1.000000
    4      -28.033936   1.000000
    5      -28.030418   1.000000
    6      -21.026323   1.000000
    7       -0.165595   1.000000
    8        1.107798   1.000000
    9        1.713596   1.000000
   10        6.577578   0.000000
   11        9.696030   0.000000
   12       10.320611   0.000000
   13       11.474436   0.000000
   14       11.639961   0.000000
   15       13.607430   0.000000
   16       13.936965   0.000000
 
 -0.7703720E-33  0.1666667E+00  0.1666667E+00  0.9259259E-02
    1      -28.053070   1.000000
    2      -28.044722   1.000000
    3      -28.044070   1.000000
    4      -28.044070   1.000000
    5      -28.042539   1.000000
    6      -21.050628   1.000000
    7        0.534137   1.000000
    8        1.521258   1.000000
    9        1.521258   1.000000
   10        5.810415   0.000000
   11        9.312486   0.000000
   12       10.796385   0.000000
   13       11.732190   0.000000
   14       11.732190   0.000000
   15       13.642151   0.000000
   16       14.235454   0.000000
 
  0.1666667E+00  0.1666667E+00  0.1666667E+00  0.9259259E-02
    1      -28.042589   1.000000
    2      -28.042589   1.000000
    3      -28.035062   1.000000
    4      -28.035062   1.000000
    5      -28.033474   1.000000
    6      -21.058602   1.000000
    7        0.557349   1.000000
    8        1.753688   1.000000
    9        1.753688   1.000000
   10        5.253172   0.000000
   11        9.971544   0.000000
   12       11.221529   0.000000
   13       11.221529   0.000000
   14       12.328199   0.000000
   15       12.574802   0.000000
   16       12.574802   0.000000
 
  0.3333333E+00  0.1666667E+00  0.1666667E+00  0.9259259E-02
    1      -28.046045   1.000000
    2      -28.039115   1.000000
    3      -28.038230   1.000000
    4      -28.033936   1.000000
    5      -28.030417   1.000000
    6      -21.026323   1.000000
    7       -0.165595   1.000000
    8        1.107798   1.000000
    9        1.713596   1.000000
   10        6.577578   0.000000
   11        9.696030   0.000000
   12       10.320611   0.000000
   13       11.474436   0.000000
   14       11.639961   0.000000
   15       13.607430   0.000000
   16       13.936965   0.000000
 
  0.5000000E+00  0.1666667E+00  0.1666667E+00  0.9259259E-02
    1      -28.055461   1.000000
    2      -28.050720   1.000000
    3      -28.043212   1.000000
    4      -28.040283   1.000000
    5      -28.038250   1.000000
    6      -20.985484   1.000000
    7       -0.860582   1.000000
    8        0.689044   1.000000
    9        1.448247   1.000000
   10        7.354013   0.000000
   11        9.417555   0.000000
   12       11.093564   0.000000
   13       11.095522   0.000000
   14       13.007255   0.000000
   15       13.509767   0.000000
   16       14.176387   0.000000
 
 -0.3333333E+00  0.1666667E+00  0.1666667E+00  0.9259259E-02
    1      -28.052647   1.000000
    2      -28.042292   1.000000
    3      -28.038543   1.000000
    4      -28.037495   1.000000
    5      -28.032754   1.000000
    6      -20.977206   1.000000
    7       -1.006323   1.000000
    8        0.804555   1.000000
    9        1.240713   1.000000
   10        7.291622   0.000000
   11        9.268628   0.000000
   12       11.280110   0.000000
   13       11.313536   0.000000
   14       13.152834   0.000000
   15       14.020209   0.000000
   16       14.673385   0.000000
 
 -0.1666667E+00  0.1666667E+00  0.1666667E+00  0.9259259E-02
    1      -28.048568   1.000000
    2      -28.048417   1.000000
    3      -28.042613   1.000000
    4      -28.040460   1.000000
    5      -28.033519   1.000000
    6      -21.010149   1.000000
    7       -0.429904   1.000000
    8        1.206502   1.000000
    9        1.274339   1.000000
   10        7.001306   0.000000
   11        9.331453   0.000000
   12        9.782700   0.000000
   13       11.835948   0.000000
   14       12.975860   0.000000
   15       13.619520   0.000000
   16       14.256019   0.000000
 
 -0.1925930E-33  0.3333333E+00  0.1666667E+00  0.9259259E-02
    1      -28.048568   1.000000
    2      -28.048417   1.000000
    3      -28.042613   1.000000
    4      -28.040460   1.000000
    5      -28.033519   1.000000
    6      -21.010149   1.000000
    7       -0.429904   1.000000
    8        1.206502   1.000000
    9        1.274340   1.000000
   10        7.001306   0.000000
   11        9.331453   0.000000
   12        9.782700   0.000000
   13       11.835948   0.000000
   14       12.975860   0.000000
   15       13.619520   0.000000
   16       14.256019   0.000000
 
  0.1666667E+00  0.3333333E+00  0.1666667E+00  0.9259259E-02
    1      -28.046045   1.000000
    2      -28.039115   1.000000
    3      -28.038230   1.000000
    4      -28.033936   1.000000
    5      -28.030417   1.000000
    6      -21.026323   1.000000
    7       -0.165595   1.000000
    8        1.107798   1.000000
    9        1.713596   1.000000
   10        6.577578   0.000000
   11        9.696030   0.000000
   12       10.320611   0.000000
   13       11.474436   0.000000
   14       11.639961   0.000000
   15       13.607430   0.000000
   16       13.936965   0.000000
 
  0.3333333E+00  0.3333333E+00  0.1666667E+00  0.9259259E-02
    1      -28.048568   1.000000
    2      -28.048417   1.000000
    3      -28.042613   1.000000
    4      -28.040460   1.000000
    5      -28.033519   1.000000
    6      -21.010149   1.000000
    7       -0.429904   1.000000
    8        1.206502   1.000000
    9        1.274339   1.000000
   10        7.001306   0.000000
   11        9.331453   0.000000
   12        9.782700   0.000000
   13       11.835948   0.000000
   14       12.975860   0.000000
   15       13.619520   0.000000
   16       14.256019   0.000000
 
  0.5000000E+00  0.3333333E+00  0.1666667E+00  0.9259259E-02
    1      -28.047797   1.000000
    2      -28.044468   1.000000
    3      -28.039754   1.000000
    4      -28.033830   1.000000
    5      -28.032417   1.000000
    6      -20.977455   1.000000
    7       -0.666413   1.000000
    8        0.434584   1.000000
    9        1.087216   1.000000
   10        8.029779   0.000000
   11        9.252792   0.000000
   12        9.360747   0.000000
   13       12.660344   0.000000
   14       13.268574   0.000000
   15       14.326997   0.000000
   16       15.523197   0.000000
 
 -0.3333333E+00  0.3333333E+00  0.1666667E+00  0.9259259E-02
    1      -28.063367   1.000000
    2      -28.058995   1.000000
    3      -28.051421   1.000000
    4      -28.048256   1.000000
    5      -28.042856   1.000000
    6      -20.961117   1.000000
    7       -0.666198   1.000000
    8        0.042914   1.000000
    9        0.886747   1.000000
   10        8.651836   0.000000
   11        8.660105   0.000000
   12       11.050847   0.000000
   13       11.522884   0.000000
   14       12.915731   0.000000
   15       14.609198   0.000000
   16       15.433906   0.000000
 
 -0.1666667E+00  0.3333333E+00  0.1666667E+00  0.9259259E-02
    1      -28.047797   1.000000
    2      -28.044468   1.000000
    3      -28.039755   1.000000
    4      -28.033830   1.000000
    5      -28.032417   1.000000
    6      -20.977455   1.000000
    7       -0.666413   1.000000
    8        0.434584   1.000000
    9        1.087216   1.000000
   10        8.029779   0.000000
   11        9.252792   0.000000
   12        9.360747   0.000000
   13       12.660344   0.000000
   14       13.268574   0.000000
   15       14.326997   0.000000
   16       15.523200   0.000000
 
 -0.1022019E-33  0.5000000E+00  0.1666667E+00  0.9259259E-02
    1      -28.052647   1.000000
    2      -28.042292   1.000000
    3      -28.038543   1.000000
    4      -28.037495   1.000000
    5      -28.032754   1.000000
    6      -20.977206   1.000000
    7       -1.006323   1.000000
    8        0.804554   1.000000
    9        1.240713   1.000000
   10        7.291622   0.000000
   11        9.268628   0.000000
   12       11.280110   0.000000
   13       11.313536   0.000000
   14       13.152834   0.000000
   15       14.020209   0.000000
   16       14.673385   0.000000
 
  0.1666667E+00  0.5000000E+00  0.1666667E+00  0.9259259E-02
    1      -28.055461   1.000000
    2      -28.050720   1.000000
    3      -28.043212   1.000000
    4      -28.040283   1.000000
    5      -28.038250   1.000000
    6      -20.985484   1.000000
    7       -0.860582   1.000000
    8        0.689044   1.000000
    9        1.448247   1.000000
   10        7.354013   0.000000
   11        9.417555   0.000000
   12       11.093564   0.000000
   13       11.095522   0.000000
   14       13.007255   0.000000
   15       13.509767   0.000000
   16       14.176387   0.000000
 
  0.3333333E+00  0.5000000E+00  0.1666667E+00  0.9259259E-02
    1      -28.047797   1.000000
    2      -28.044468   1.000000
    3      -28.039754   1.000000
    4      -28.033830   1.000000
    5      -28.032417   1.000000
    6      -20.977455   1.000000
    7       -0.666413   1.000000
    8        0.434584   1.000000
    9        1.087216   1.000000
   10        8.029779   0.000000
   11        9.252792   0.000000
   12        9.360747   0.000000
   13       12.660344   0.000000
   14       13.268574   0.000000
   15       14.326997   0.000000
   16       15.523192   0.000000
 
  0.5000000E+00  0.5000000E+00  0.1666667E+00  0.9259259E-02
    1      -28.051740   1.000000
    2      -28.050953   1.000000
    3      -28.049447   1.000000
    4      -28.046122   1.000000
    5      -28.040833   1.000000
    6      -20.961278   1.000000
    7       -0.810460   1.000000
    8        0.379975   1.000000
    9        0.857754   1.000000
   10        7.084676   0.000000
   11        8.691693   0.000000
   12       11.284171   0.000000
   13       13.084719   0.000000
   14       14.008873   0.000000
   15       14.995887   0.000000
   16       16.156567   0.000000
 
 -0.3333333E+00  0.5000000E+00  0.1666667E+00  0.9259259E-02
    1      -28.056823   1.000000
    2      -28.056420   1.000000
    3      -28.053181   1.000000
    4      -28.046598   1.000000
    5      -28.041945   1.000000
    6      -20.953073   1.000000
    7       -0.667572   1.000000
    8        0.148700   1.000000
    9        0.543403   1.000000
   10        7.687715   0.000000
   11        9.101973   0.000000
   12       10.977355   0.000000
   13       11.928106   0.000000
   14       14.640488   0.000000
   15       14.987652   0.000000
   16       16.462224   0.000000
 
 -0.1666667E+00  0.5000000E+00  0.1666667E+00  0.9259259E-02
    1      -28.063367   1.000000
    2      -28.058995   1.000000
    3      -28.051421   1.000000
    4      -28.048256   1.000000
    5      -28.042856   1.000000
    6      -20.961117   1.000000
    7       -0.666198   1.000000
    8        0.042914   1.000000
    9        0.886747   1.000000
   10        8.651836   0.000000
   11        8.660105   0.000000
   12       11.050847   0.000000
   13       11.522884   0.000000
   14       12.915731   0.000000
   15       14.609198   0.000000
   16       15.433906   0.000000
 
 -0.1540744E-32 -0.3333333E+00  0.1666667E+00  0.9259259E-02
    1      -28.055461   1.000000
    2      -28.050721   1.000000
    3      -28.043212   1.000000
    4      -28.040283   1.000000
    5      -28.038251   1.000000
    6      -20.985484   1.000000
    7       -0.860582   1.000000
    8        0.689044   1.000000
    9        1.448247   1.000000
   10        7.354013   0.000000
   11        9.417555   0.000000
   12       11.093564   0.000000
   13       11.095522   0.000000
   14       13.007255   0.000000
   15       13.509767   0.000000
   16       14.176387   0.000000
 
  0.1666667E+00 -0.3333333E+00  0.1666667E+00  0.9259259E-02
    1      -28.052647   1.000000
    2      -28.042292   1.000000
    3      -28.038543   1.000000
    4      -28.037495   1.000000
    5      -28.032754   1.000000
    6      -20.977206   1.000000
    7       -1.006323   1.000000
    8        0.804555   1.000000
    9        1.240713   1.000000
   10        7.291622   0.000000
   11        9.268628   0.000000
   12       11.280110   0.000000
   13       11.313536   0.000000
   14       13.152834   0.000000
   15       14.020209   0.000000
   16       14.673385   0.000000
 
  0.3333333E+00 -0.3333333E+00  0.1666667E+00  0.9259259E-02
    1      -28.063367   1.000000
    2      -28.058995   1.000000
    3      -28.051421   1.000000
    4      -28.048256   1.000000
    5      -28.042856   1.000000
    6      -20.961117   1.000000
    7       -0.666198   1.000000
    8        0.042914   1.000000
    9        0.886747   1.000000
   10        8.651836   0.000000
   11        8.660105   0.000000
   12       11.050847   0.000000
   13       11.522884   0.000000
   14       12.915731   0.000000
   15       14.609198   0.000000
   16       15.433906   0.000000
 
  0.5000000E+00 -0.3333333E+00  0.1666667E+00  0.9259259E-02
    1      -28.056823   1.000000
    2      -28.056420   1.000000
    3      -28.053181   1.000000
    4      -28.046598   1.000000
    5      -28.041945   1.000000
    6      -20.953073   1.000000
    7       -0.667572   1.000000
    8        0.148700   1.000000
    9        0.543403   1.000000
   10        7.687715   0.000000
   11        9.101973   0.000000
   12       10.977355   0.000000
   13       11.928106   0.000000
   14       14.640488   0.000000
   15       14.987652   0.000000
   16       16.462224   0.000000
 
 -0.3333333E+00 -0.3333333E+00  0.1666667E+00  0.9259259E-02
    1      -28.051740   1.000000
    2      -28.050953   1.000000
    3      -28.049447   1.000000
    4      -28.046122   1.000000
    5      -28.040833   1.000000
    6      -20.961278   1.000000
    7       -0.810460   1.000000
    8        0.379975   1.000000
    9        0.857754   1.000000
   10        7.084676   0.000000
   11        8.691693   0.000000
   12       11.284171   0.000000
   13       13.084719   0.000000
   14       14.008873   0.000000
   15       14.995887   0.000000
   16       16.156567   0.000000
 
 -0.1666667E+00 -0.3333333E+00  0.1666667E+00  0.9259259E-02
    1      -28.047797   1.000000
    2      -28.044468   1.000000
    3      -28.039755   1.000000
    4      -28.033830   1.000000
    5      -28.032417   1.000000
    6      -20.977455   1.000000
    7       -0.666413   1.000000
    8        0.434584   1.000000
    9        1.087216   1.000000
   10        8.029779   0.000000
   11        9.252792   0.000000
   12        9.360747   0.000000
   13       12.660344   0.000000
   14       13.268574   0.000000
   15       14.326997   0.000000
   16       15.523196   0.000000
 
  0.7703720E-33 -0.1666667E+00  0.1666667E+00  0.9259259E-02
    1      -28.046045   1.000000
    2      -28.039115   1.000000
    3      -28.038230   1.000000
    4      -28.033936   1.000000
    5      -28.030418   1.000000