 vasp.5.4.4.18Apr17-6-g9f103f2a35 (build Jul 09 2018 16:43:14) complex          
  
 executed on             LinuxIFC date 2018.11.22  20:29:44
 running on   64 total cores
 distrk:  each k-point on   32 cores,    2 groups
 distr:  one band on NCORES_PER_BAND=   8 cores,    4 groups


--------------------------------------------------------------------------------------------------------


 INCAR:
 POTCAR:    PAW Og, JanMewes Oct 18               

 ----------------------------------------------------------------------------- 
|                                                                             |
|           W    W    AA    RRRRR   N    N  II  N    N   GGGG   !!!           |
|           W    W   A  A   R    R  NN   N  II  NN   N  G    G  !!!           |
|           W    W  A    A  R    R  N N  N  II  N N  N  G       !!!           |
|           W WW W  AAAAAA  RRRRR   N  N N  II  N  N N  G  GGG   !            |
|           WW  WW  A    A  R   R   N   NN  II  N   NN  G    G                |
|           W    W  A    A  R    R  N    N  II  N    N   GGGG   !!!           |
|                                                                             |
|      You have enabled k-point parallelism (KPAR>1).                         |
|      This developmental code was originally  written by Paul Kent at ORNL,  |
|      and carefully double checked in Vienna.                                |
|      GW as well as linear response parallelism added by Martijn Marsman     |
|      and Georg Kresse.                                                      |
|      Carefully verify results versus KPAR=1.                                |
|      Report problems to Paul Kent and Vienna.                               |
|                                                                             |
 ----------------------------------------------------------------------------- 

 POTCAR:    PAW Og, JanMewes Oct 18               
   VRHFIN =Og : 10d 2s 6p, PE                                                   
   LEXCH  = PE                                                                  
   EATOM  =  2640.5573 eV,  194.0755 Ry                                         
                                                                                
   TITEL  = PAW Og, JanMewes Oct 18                                             
   LULTRA =        F    use ultrasoft PP ?                                      
   IUNSCR =        1    unscreen: 0-lin 1-nonlin 2-no                           
   RPACOR =    1.700    partial core radius                                     
   POMASS =    0.010; ZVAL   =   18.000    mass and valenz                      
   RCORE  =    2.600    outmost cutoff radius                                   
   RWIGS  =    3.500; RWIGS  =    1.852    wigner-seitz radius (au A)           
   ENMAX  =  339.336; ENMIN  =  254.502 eV                                      
   ICORE  =        3    local potential                                         
   LCOR   =        T    correct aug charges                                     
   LPAW   =        T    paw PP                                                  
   EAUG   =  361.025                                                            
   DEXC   =   -0.000                                                            
   RAUG   =    1.300    factor for augmentation sphere                          
   RDEP   =    2.775    radius for radial grids                                 
   RDEPT  =    2.135    core radius for aug-charge                              
   QCUT   =   -4.994; QGAM   =    9.988    optimization parameters              
                                                                                
   Atomic configuration                                                         
   22 entries                                                                   
     n  l   j            E        occ.                                          
     1  0  0.50   -225781.4217   2.0000                                         
     2  0  0.50    -47342.3774   2.0000                                         
     2  1  1.50    -33463.4058   6.0000                                         
     3  0  0.50    -12845.8060   2.0000                                         
     3  1  1.50     -9184.5562   6.0000                                         
     3  2  2.50     -7322.6146  10.0000                                         
     4  0  0.50     -3781.9433   2.0000                                         
     4  1  1.50     -2605.9204   6.0000                                         
     4  2  2.50     -1899.4626  10.0000                                         
     4  3  3.50     -1273.6890  14.0000                                         
     5  0  0.50     -1046.0643   2.0000                                         
     5  1  1.50      -650.9265   6.0000                                         
     5  2  2.50      -388.1490  10.0000                                         
     5  3  3.50      -152.1121  14.0000                                         
     6  0  0.50      -224.6639   2.0000                                         
     6  1  0.50      -184.3267   2.0000                                         
     6  1  1.50       -97.8537   4.0000                                         
     6  2  2.50       -35.6667  10.0000                                         
     7  0  0.50       -28.5889   2.0000                                         
     8  0  0.50        -1.3606   0.0000                                         
     7  1  1.50        -7.0827   6.0000                                         
     6  3  3.50        -0.0136   0.0000                                         
   Description                                                                  
     l       E           TYP  RCUT    TYP  RCUT                                 
     2    -35.6666962     23  2.100                                             
     2     34.0145650     23  2.300                                             
     0    -28.5889381     23  1.600                                             
     0     40.8174780     23  2.200                                             
     1     -7.0826811     23  2.200                                             
     1    148.3035034     23  1.900                                             
     3      6.8029130      7  2.600                                             
  local pseudopotential read in
  partial core-charges read in
  partial kinetic energy density read in
  kinetic energy density of atom read in
  atomic valenz-charges read in
  non local Contribution for L=           2  read in
    real space projection operators read in
  non local Contribution for L=           2  read in
    real space projection operators read in
  non local Contribution for L=           0  read in
    real space projection operators read in
  non local Contribution for L=           0  read in
    real space projection operators read in
  non local Contribution for L=           1  read in
    real space projection operators read in
  non local Contribution for L=           1  read in
    real space projection operators read in
    PAW grid and wavefunctions read in
 
   number of l-projection  operators is LMAX  =           6
   number of lm-projection operators is LMMAX =          18
 
  PAW Og, JanMewes Oct 18               :
 energy of atom  1       EATOM=-2640.5573
 kinetic energy error for atom=    0.6524 (will be added to EATOM!!)
 
 
 POSCAR: Og_FCC                                  
  positions in direct lattice
  velocities in cartesian coordinates
 exchange correlation table for  LEXCH =        8
   RHO(1)=    0.500       N(1)  =     2000
   RHO(2)=  100.500       N(2)  =     4000
 


--------------------------------------------------------------------------------------------------------


 ion  position               nearest neighbor table
   1  0.000  0.000  0.000-
 

IMPORTANT INFORMATION: All symmetrisations will be switched off!
NOSYMM: (Re-)initialisation of all symmetry stuff for point group C_1.

 
 
 KPOINTS: k-points                                

Automatic generation of k-mesh.
Space group operators:
 irot       det(A)        alpha          n_x          n_y          n_z        tau_x        tau_y        tau_z
    1     1.000000     0.000000     1.000000     0.000000     0.000000     0.000000     0.000000     0.000000
 
 Subroutine IBZKPT returns following result:
 ===========================================
 
 Found    112 irreducible k-points:
 
 Following reciprocal coordinates:
            Coordinates               Weight
  0.000000  0.000000  0.000000      1.000000
  0.166667  0.000000  0.000000      2.000000
  0.333333  0.000000  0.000000      2.000000
  0.500000  0.000000  0.000000      1.000000
 -0.000000  0.166667 -0.000000      2.000000
  0.166667  0.166667  0.000000      2.000000
  0.333333  0.166667 -0.000000      2.000000
  0.500000  0.166667  0.000000      2.000000
 -0.333333  0.166667 -0.000000      2.000000
 -0.166667  0.166667 -0.000000      2.000000
  0.000000  0.333333 -0.000000      2.000000
  0.166667  0.333333  0.000000      2.000000
  0.333333  0.333333  0.000000      2.000000
  0.500000  0.333333  0.000000      2.000000
 -0.333333  0.333333 -0.000000      2.000000
 -0.166667  0.333333 -0.000000      2.000000
  0.000000  0.500000 -0.000000      1.000000
  0.166667  0.500000  0.000000      2.000000
  0.333333  0.500000  0.000000      2.000000
  0.500000  0.500000  0.000000      1.000000
  0.000000  0.000000  0.166667      2.000000
  0.166667  0.000000  0.166667      2.000000
  0.333333 -0.000000  0.166667      2.000000
  0.500000 -0.000000  0.166667      2.000000
 -0.333333 -0.000000  0.166667      2.000000
 -0.166667  0.000000  0.166667      2.000000
 -0.000000  0.166667  0.166667      2.000000
  0.166667  0.166667  0.166667      2.000000
  0.333333  0.166667  0.166667      2.000000
  0.500000  0.166667  0.166667      2.000000
 -0.333333  0.166667  0.166667      2.000000
 -0.166667  0.166667  0.166667      2.000000
 -0.000000  0.333333  0.166667      2.000000
  0.166667  0.333333  0.166667      2.000000
  0.333333  0.333333  0.166667      2.000000
  0.500000  0.333333  0.166667      2.000000
 -0.333333  0.333333  0.166667      2.000000
 -0.166667  0.333333  0.166667      2.000000
 -0.000000  0.500000  0.166667      2.000000
  0.166667  0.500000  0.166667      2.000000
  0.333333  0.500000  0.166667      2.000000
  0.500000  0.500000  0.166667      2.000000
 -0.333333  0.500000  0.166667      2.000000
 -0.166667  0.500000  0.166667      2.000000
 -0.000000 -0.333333  0.166667      2.000000
  0.166667 -0.333333  0.166667      2.000000
  0.333333 -0.333333  0.166667      2.000000
  0.500000 -0.333333  0.166667      2.000000
 -0.333333 -0.333333  0.166667      2.000000
 -0.166667 -0.333333  0.166667      2.000000
  0.000000 -0.166667  0.166667      2.000000
  0.166667 -0.166667  0.166667      2.000000
  0.333333 -0.166667  0.166667      2.000000
  0.500000 -0.166667  0.166667      2.000000
 -0.333333 -0.166667  0.166667      2.000000
 -0.166667 -0.166667  0.166667      2.000000
  0.000000  0.000000  0.333333      2.000000
  0.166667  0.000000  0.333333      2.000000
  0.333333  0.000000  0.333333      2.000000
  0.500000 -0.000000  0.333333      2.000000
 -0.333333  0.000000  0.333333      2.000000
 -0.166667  0.000000  0.333333      2.000000
 -0.000000  0.166667  0.333333      2.000000
  0.166667  0.166667  0.333333      2.000000
  0.333333  0.166667  0.333333      2.000000
  0.500000  0.166667  0.333333      2.000000
 -0.333333  0.166667  0.333333      2.000000
 -0.166667  0.166667  0.333333      2.000000
 -0.000000  0.333333  0.333333      2.000000
  0.166667  0.333333  0.333333      2.000000
  0.333333  0.333333  0.333333      2.000000
  0.500000  0.333333  0.333333      2.000000
 -0.333333  0.333333  0.333333      2.000000
 -0.166667  0.333333  0.333333      2.000000
  0.000000  0.500000  0.333333      2.000000
  0.166667  0.500000  0.333333      2.000000
  0.333333  0.500000  0.333333      2.000000
  0.500000  0.500000  0.333333      2.000000
 -0.333333  0.500000  0.333333      2.000000
 -0.166667  0.500000  0.333333      2.000000
  0.000000 -0.333333  0.333333      2.000000
  0.166667 -0.333333  0.333333      2.000000
  0.333333 -0.333333  0.333333      2.000000
  0.500000 -0.333333  0.333333      2.000000
 -0.333333 -0.333333  0.333333      2.000000
 -0.166667 -0.333333  0.333333      2.000000
  0.000000 -0.166667  0.333333      2.000000
  0.166667 -0.166667  0.333333      2.000000
  0.333333 -0.166667  0.333333      2.000000
  0.500000 -0.166667  0.333333      2.000000
 -0.333333 -0.166667  0.333333      2.000000
 -0.166667 -0.166667  0.333333      2.000000
  0.000000  0.000000  0.500000      1.000000
  0.166667  0.000000  0.500000      2.000000
  0.333333  0.000000  0.500000      2.000000
  0.500000 -0.000000  0.500000      1.000000
 -0.000000  0.166667  0.500000      2.000000
  0.166667  0.166667  0.500000      2.000000
  0.333333  0.166667  0.500000      2.000000
  0.500000  0.166667  0.500000      2.000000
 -0.333333  0.166667  0.500000      2.000000
 -0.166667  0.166667  0.500000      2.000000
  0.000000  0.333333  0.500000      2.000000
  0.166667  0.333333  0.500000      2.000000
  0.333333  0.333333  0.500000      2.000000
  0.500000  0.333333  0.500000      2.000000
 -0.333333  0.333333  0.500000      2.000000
 -0.166667  0.333333  0.500000      2.000000
 -0.000000  0.500000  0.500000      1.000000
  0.166667  0.500000  0.500000      2.000000
  0.333333  0.500000  0.500000      2.000000
  0.500000  0.500000  0.500000      1.000000
 
 Following cartesian coordinates:
            Coordinates               Weight
  0.000000  0.000000  0.000000      1.000000
  0.038382 -0.022160 -0.015669      2.000000
  0.076763 -0.044319 -0.031339      2.000000
  0.115145 -0.066479 -0.047008      1.000000
  0.000000  0.044319 -0.015669      2.000000
  0.038382  0.022160 -0.031339      2.000000
  0.076763  0.000000 -0.047008      2.000000
  0.115145 -0.022160 -0.062677      2.000000
 -0.076763  0.088639  0.015669      2.000000
 -0.038382  0.066479 -0.000000      2.000000
  0.000000  0.088639 -0.031339      2.000000
  0.038382  0.066479 -0.047008      2.000000
  0.076763  0.044319 -0.062677      2.000000
  0.115145  0.022160 -0.078346      2.000000
 -0.076763  0.132958  0.000000      2.000000
 -0.038382  0.110798 -0.015669      2.000000
  0.000000  0.132958 -0.047008      1.000000
  0.038382  0.110798 -0.062677      2.000000
  0.076763  0.088639 -0.078346      2.000000
  0.115145  0.066479 -0.094016      1.000000
 -0.000000  0.000000  0.047008      2.000000
  0.038382 -0.022160  0.031339      2.000000
  0.076763 -0.044319  0.015669      2.000000
  0.115145 -0.066479  0.000000      2.000000
 -0.076763  0.044319  0.078346      2.000000
 -0.038382  0.022160  0.062677      2.000000
 -0.000000  0.044319  0.031339      2.000000
  0.038382  0.022160  0.015669      2.000000
  0.076763  0.000000  0.000000      2.000000
  0.115145 -0.022160 -0.015669      2.000000
 -0.076763  0.088639  0.062677      2.000000
 -0.038382  0.066479  0.047008      2.000000
 -0.000000  0.088639  0.015669      2.000000
  0.038382  0.066479  0.000000      2.000000
  0.076763  0.044319 -0.015669      2.000000
  0.115145  0.022160 -0.031339      2.000000
 -0.076763  0.132958  0.047008      2.000000
 -0.038382  0.110798  0.031339      2.000000
 -0.000000  0.132958  0.000000      2.000000
  0.038382  0.110798 -0.015669      2.000000
  0.076763  0.088639 -0.031339      2.000000
  0.115145  0.066479 -0.047008      2.000000
 -0.076763  0.177278  0.031339      2.000000
 -0.038382  0.155118  0.015669      2.000000
 -0.000000 -0.088639  0.078346      2.000000
  0.038382 -0.110798  0.062677      2.000000
  0.076763 -0.132958  0.047008      2.000000
  0.115145 -0.155118  0.031339      2.000000
 -0.076763 -0.044319  0.109685      2.000000
 -0.038382 -0.066479  0.094016      2.000000
 -0.000000 -0.044319  0.062677      2.000000
  0.038382 -0.066479  0.047008      2.000000
  0.076763 -0.088639  0.031339      2.000000
  0.115145 -0.110798  0.015669      2.000000
 -0.076763  0.000000  0.094016      2.000000
 -0.038382 -0.022160  0.078346      2.000000
 -0.000000  0.000000  0.094016      2.000000
  0.038382 -0.022160  0.078346      2.000000
  0.076763 -0.044319  0.062677      2.000000
  0.115145 -0.066479  0.047008      2.000000
 -0.076763  0.044319  0.125354      2.000000
 -0.038382  0.022160  0.109685      2.000000
 -0.000000  0.044319  0.078346      2.000000
  0.038382  0.022160  0.062677      2.000000
  0.076763  0.000000  0.047008      2.000000
  0.115145 -0.022160  0.031339      2.000000
 -0.076763  0.088639  0.109685      2.000000
 -0.038382  0.066479  0.094016      2.000000
 -0.000000  0.088639  0.062677      2.000000
  0.038382  0.066479  0.047008      2.000000
  0.076763  0.044319  0.031339      2.000000
  0.115145  0.022160  0.015669      2.000000
 -0.076763  0.132958  0.094016      2.000000
 -0.038382  0.110798  0.078346      2.000000
 -0.000000  0.132958  0.047008      2.000000
  0.038382  0.110798  0.031339      2.000000
  0.076763  0.088639  0.015669      2.000000
  0.115145  0.066479 -0.000000      2.000000
 -0.076763  0.177278  0.078346      2.000000
 -0.038382  0.155118  0.062677      2.000000
 -0.000000 -0.088639  0.125354      2.000000
  0.038382 -0.110798  0.109685      2.000000
  0.076763 -0.132958  0.094016      2.000000
  0.115145 -0.155118  0.078346      2.000000
 -0.076763 -0.044319  0.156693      2.000000
 -0.038382 -0.066479  0.141023      2.000000
 -0.000000 -0.044319  0.109685      2.000000
  0.038382 -0.066479  0.094016      2.000000
  0.076763 -0.088639  0.078346      2.000000
  0.115145 -0.110798  0.062677      2.000000
 -0.076763  0.000000  0.141023      2.000000
 -0.038382 -0.022160  0.125354      2.000000
 -0.000000  0.000000  0.141023      1.000000
  0.038382 -0.022160  0.125354      2.000000
  0.076763 -0.044319  0.109685      2.000000
  0.115145 -0.066479  0.094016      1.000000
 -0.000000  0.044319  0.125354      2.000000
  0.038382  0.022160  0.109685      2.000000
  0.076763  0.000000  0.094016      2.000000
  0.115145 -0.022160  0.078346      2.000000
 -0.076763  0.088639  0.156693      2.000000
 -0.038382  0.066479  0.141023      2.000000
 -0.000000  0.088639  0.109685      2.000000
  0.038382  0.066479  0.094016      2.000000
  0.076763  0.044319  0.078346      2.000000
  0.115145  0.022160  0.062677      2.000000
 -0.076763  0.132958  0.141023      2.000000
 -0.038382  0.110798  0.125354      2.000000
 -0.000000  0.132958  0.094016      1.000000
  0.038382  0.110798  0.078346      2.000000
  0.076763  0.088639  0.062677      2.000000
  0.115145  0.066479  0.047008      1.000000
 


--------------------------------------------------------------------------------------------------------




 Dimension of arrays:
   k-points           NKPTS =    112   k-points in BZ     NKDIM =    112   number of bands    NBANDS=     16
   number of dos      NEDOS =    301   number of ions     NIONS =      1
   non local maximal  LDIM  =      6   non local SUM 2l+1 LMDIM =     18
   total plane-waves  NPLWV =  21952
   max r-space proj   IRMAX =      1   max aug-charges    IRDMAX= 182324
   dimension x,y,z NGX =    28 NGY =   28 NGZ =   28
   dimension x,y,z NGXF=    56 NGYF=   56 NGZF=   56
   support grid    NGXF=   112 NGYF=  112 NGZF=  112
   ions per type =               1
   NGX,Y,Z   is equivalent  to a cutoff of  10.72, 10.72, 10.72 a.u.
   NGXF,Y,Z  is equivalent  to a cutoff of  21.44, 21.44, 21.44 a.u.

 SYSTEM =  Og_FCC                                  
 POSCAR =  Og_FCC                                  

 Startparameter for this run:
   NWRITE =      2    write-flag & timer
   PREC   = accura    normal or accurate (medium, high low for compatibility)
   ISTART =      1    job   : 0-new  1-cont  2-samecut
   ICHARG =      0    charge: 1-file 2-atom 10-const
   ISPIN  =      1    spin polarized calculation?
   LNONCOLLINEAR =      F non collinear calculations
   LSORBIT =      F    spin-orbit coupling
   INIWAV =      1    electr: 0-lowe 1-rand  2-diag
   LASPH  =      F    aspherical Exc in radial PAW
   METAGGA=      F    non-selfconsistent MetaGGA calc.

 Electronic Relaxation 1
   ENCUT  =  300.0 eV  22.05 Ry    4.70 a.u.   6.13  6.13  6.13*2*pi/ulx,y,z
   ENINI  =  300.0     initial cutoff
   ENAUG  =  361.0 eV  augmentation charge cutoff
   NELM   =     50;   NELMIN=  2; NELMDL= -5     # of ELM steps 
   EDIFF  = 0.1E-07   stopping-criterion for ELM
   LREAL  =      F    real-space projection
   NLSPLINE    = F    spline interpolate recip. space projectors
   LCOMPAT=      F    compatible to vasp.4.4
   GGA_COMPAT  = F    GGA compatible to vasp.4.4-vasp.4.6
   LMAXPAW     = -100 max onsite density
   LMAXMIX     =    2 max onsite mixed and CHGCAR
   VOSKOWN=      0    Vosko Wilk Nusair interpolation
   ROPT   =    0.00000
 Ionic relaxation
   EDIFFG = 0.1E-04   stopping-criterion for IOM
   NSW    =      1    number of steps for IOM
   NBLOCK =      1;   KBLOCK =      1    inner block; outer block 
   IBRION =     -1    ionic relax: 0-MD 1-quasi-New 2-CG
   NFREE  =      5    steps in history (QN), initial steepest desc. (CG)
   ISIF   =      3    stress and relaxation
   IWAVPR =     10    prediction:  0-non 1-charg 2-wave 3-comb
   ISYM   =      0    0-nonsym 1-usesym 2-fastsym
   LCORR  =      T    Harris-Foulkes like correction to forces

   POTIM  = 0.1000    time-step for ionic-motion
   TEIN   =    0.0    initial temperature
   TEBEG  =    0.0;   TEEND  =   0.0 temperature during run
   SMASS  =  -3.00    Nose mass-parameter (am)
   estimated Nose-frequenzy (Omega)   =  0.10E-29 period in steps =****** mass=  -0.431E-27a.u.
   SCALEE = 1.0000    scale energy and forces
   NPACO  =    256;   APACO  = 16.0  distance and # of slots for P.C.
   PSTRESS=    0.0 pullay stress

  Mass of Ions in am
   POMASS =   0.01
  Ionic Valenz
   ZVAL   =  18.00
  Atomic Wigner-Seitz radii
   RWIGS  =  -1.00
  virtual crystal weights 
   VCA    =   1.00
   NELECT =      18.0000    total number of electrons
   NUPDOWN=      -1.0000    fix difference up-down

 DOS related values:
   EMIN   =  10.00;   EMAX   =-10.00  energy-range for DOS
   EFERMI =   0.00
   ISMEAR =     0;   SIGMA  =   0.00  broadening in eV -4-tet -1-fermi 0-gaus

 Electronic relaxation 2 (details)
   IALGO  =     38    algorithm
   LDIAG  =      T    sub-space diagonalisation (order eigenvalues)
   LSUBROT=      F    optimize rotation matrix (better conditioning)
   TURBO    =      0    0=normal 1=particle mesh
   IRESTART =      0    0=no restart 2=restart with 2 vectors
   NREBOOT  =      0    no. of reboots
   NMIN     =      0    reboot dimension
   EREF     =   0.00    reference energy to select bands
   IMIX   =      4    mixing-type and parameters
     AMIX     =   0.40;   BMIX     =  1.00
     AMIX_MAG =   1.60;   BMIX_MAG =  1.00
     AMIN     =   0.10
     WC   =   100.;   INIMIX=   1;  MIXPRE=   1;  MAXMIX=  50

 Intra band minimization:
   WEIMIN = 0.0000     energy-eigenvalue tresh-hold
   EBREAK =  0.16E-09  absolut break condition
   DEPER  =   0.30     relativ break condition  

   TIME   =   0.40     timestep for ELM

  volume/ion in A,a.u.               =      57.90       390.71
  Fermi-wavevector in a.u.,A,eV,Ry     =   1.109038  2.095777 16.734680  1.229964
  Thomas-Fermi vector in A             =   2.245572
 
 Write flags
   LWAVE        =      T    write WAVECAR
   LDOWNSAMPLE  =      F    k-point downsampling of WAVECAR
   LCHARG       =      F    write CHGCAR
   LVTOT        =      F    write LOCPOT, total local potential
   LVHAR        =      F    write LOCPOT, Hartree potential only
   LELF         =      F    write electronic localiz. function (ELF)
   LORBIT       =      0    0 simple, 1 ext, 2 COOP (PROOUT), +10 PAW based schemes


 Dipole corrections
   LMONO  =      F    monopole corrections only (constant potential shift)
   LDIPOL =      F    correct potential (dipole corrections)
   IDIPOL =      0    1-x, 2-y, 3-z, 4-all directions 
   EPSILON=  1.0000000 bulk dielectric constant

 Exchange correlation treatment:
   GGA     =    PE    GGA type
   LEXCH   =     8    internal setting for exchange type
   VOSKOWN=      0    Vosko Wilk Nusair interpolation
   LHFCALC =     F    Hartree Fock is set to
   LHFONE  =     F    Hartree Fock one center treatment
   AEXX    =    0.0000 exact exchange contribution

 Linear response parameters
   LEPSILON=     F    determine dielectric tensor
   LRPA    =     F    only Hartree local field effects (RPA)
   LNABLA  =     F    use nabla operator in PAW spheres
   LVEL    =     F    velocity operator in full k-point grid
   LINTERFAST=   F  fast interpolation
   KINTER  =     0    interpolate to denser k-point grid
   CSHIFT  =0.1000    complex shift for real part using Kramers Kronig
   OMEGAMAX=  -1.0    maximum frequency
   DEG_THRESHOLD= 0.2000000E-02 threshold for treating states as degnerate
   RTIME   =   -0.100 relaxation time in fs
  (WPLASMAI=    0.000 imaginary part of plasma frequency in eV, 0.658/RTIME)
   DFIELD  = 0.0000000 0.0000000 0.0000000 field for delta impulse in time
 
 Orbital magnetization related:
   ORBITALMAG=     F  switch on orbital magnetization
   LCHIMAG   =     F  perturbation theory with respect to B field
   DQ        =  0.001000  dq finite difference perturbation B field
   LLRAUG    =     F  two centre corrections for induced B field



--------------------------------------------------------------------------------------------------------


 Static calculation
 charge density and potential will be updated during run
 non-spin polarized calculation
 Variant of blocked Davidson
 Davidson routine will perform the subspace rotation
 perform sub-space diagonalisation
    after iterative eigenvector-optimisation
 modified Broyden-mixing scheme, WC =      100.0
 initial mixing is a Kerker type mixing with AMIX =  0.4000 and BMIX =      1.0000
 Hartree-type preconditioning will be used
 using additional bands            7
 reciprocal scheme for non local part
 use partial core corrections
 calculate Harris-corrections to forces 
   (improved forces if not selfconsistent)
 use gradient corrections 
 use of overlap-Matrix (Vanderbilt PP)
 Gauss-broadening in eV      SIGMA  =   0.00


--------------------------------------------------------------------------------------------------------


  energy-cutoff  :      300.00
  volume of cell :       57.90
      direct lattice vectors                 reciprocal lattice vectors
     4.342345876  0.000000000  0.000000000     0.230290269 -0.132958149 -0.094015609
     2.171172938  3.760581840 -0.000000000     0.000000000  0.265916298 -0.094015609
     2.171172938  1.253527280  3.545510561    -0.000000000  0.000000000  0.282046826

  length of vectors
     4.342345876  4.342345876  4.342345876     0.282046826  0.282046826  0.282046826


 
 old parameters found on file WAVECAR:
  energy-cutoff  :      300.00
  volume of cell :       57.90
      direct lattice vectors                 reciprocal lattice vectors
     4.342345876  0.000000000  0.000000000     0.230290269 -0.132958149 -0.094015609
     2.171172938  3.760581840 -0.000000000     0.000000000  0.265916298 -0.094015609
     2.171172938  1.253527280  3.545510561    -0.000000000  0.000000000  0.282046826

  length of vectors

 
 k-points in units of 2pi/SCALE and weight: k-points                                
   0.00000000  0.00000000  0.00000000       0.005
   0.03838171 -0.02215969 -0.01566927       0.009
   0.07676342 -0.04431938 -0.03133854       0.009
   0.11514513 -0.06647907 -0.04700780       0.005
   0.00000000  0.04431938 -0.01566927       0.009
   0.03838171  0.02215969 -0.03133854       0.009
   0.07676342  0.00000000 -0.04700780       0.009
   0.11514513 -0.02215969 -0.06267707       0.009
  -0.07676342  0.08863877  0.01566927       0.009
  -0.03838171  0.06647907 -0.00000000       0.009
   0.00000000  0.08863877 -0.03133854       0.009
   0.03838171  0.06647907 -0.04700780       0.009
   0.07676342  0.04431938 -0.06267707       0.009
   0.11514513  0.02215969 -0.07834634       0.009
  -0.07676342  0.13295815  0.00000000       0.009
  -0.03838171  0.11079846 -0.01566927       0.009
   0.00000000  0.13295815 -0.04700780       0.005
   0.03838171  0.11079846 -0.06267707       0.009
   0.07676342  0.08863877 -0.07834634       0.009
   0.11514513  0.06647907 -0.09401561       0.005
  -0.00000000  0.00000000  0.04700780       0.009
   0.03838171 -0.02215969  0.03133854       0.009
   0.07676342 -0.04431938  0.01566927       0.009
   0.11514513 -0.06647907  0.00000000       0.009
  -0.07676342  0.04431938  0.07834634       0.009
  -0.03838171  0.02215969  0.06267707       0.009
  -0.00000000  0.04431938  0.03133854       0.009
   0.03838171  0.02215969  0.01566927       0.009
   0.07676342  0.00000000  0.00000000       0.009
   0.11514513 -0.02215969 -0.01566927       0.009
  -0.07676342  0.08863877  0.06267707       0.009
  -0.03838171  0.06647907  0.04700780       0.009
  -0.00000000  0.08863877  0.01566927       0.009
   0.03838171  0.06647907  0.00000000       0.009
   0.07676342  0.04431938 -0.01566927       0.009
   0.11514513  0.02215969 -0.03133854       0.009
  -0.07676342  0.13295815  0.04700780       0.009
  -0.03838171  0.11079846  0.03133854       0.009
  -0.00000000  0.13295815  0.00000000       0.009
   0.03838171  0.11079846 -0.01566927       0.009
   0.07676342  0.08863877 -0.03133854       0.009
   0.11514513  0.06647907 -0.04700780       0.009
  -0.07676342  0.17727753  0.03133854       0.009
  -0.03838171  0.15511784  0.01566927       0.009
  -0.00000000 -0.08863877  0.07834634       0.009
   0.03838171 -0.11079846  0.06267707       0.009
   0.07676342 -0.13295815  0.04700780       0.009
   0.11514513 -0.15511784  0.03133854       0.009
  -0.07676342 -0.04431938  0.10968488       0.009
  -0.03838171 -0.06647907  0.09401561       0.009
  -0.00000000 -0.04431938  0.06267707       0.009
   0.03838171 -0.06647907  0.04700780       0.009
   0.07676342 -0.08863877  0.03133854       0.009
   0.11514513 -0.11079846  0.01566927       0.009
  -0.07676342  0.00000000  0.09401561       0.009
  -0.03838171 -0.02215969  0.07834634       0.009
  -0.00000000  0.00000000  0.09401561       0.009
   0.03838171 -0.02215969  0.07834634       0.009
   0.07676342 -0.04431938  0.06267707       0.009
   0.11514513 -0.06647907  0.04700780       0.009
  -0.07676342  0.04431938  0.12535414       0.009
  -0.03838171  0.02215969  0.10968488       0.009
  -0.00000000  0.04431938  0.07834634       0.009
   0.03838171  0.02215969  0.06267707       0.009
   0.07676342  0.00000000  0.04700780       0.009
   0.11514513 -0.02215969  0.03133854       0.009
  -0.07676342  0.08863877  0.10968488       0.009
  -0.03838171  0.06647907  0.09401561       0.009
  -0.00000000  0.08863877  0.06267707       0.009
   0.03838171  0.06647907  0.04700780       0.009
   0.07676342  0.04431938  0.03133854       0.009
   0.11514513  0.02215969  0.01566927       0.009
  -0.07676342  0.13295815  0.09401561       0.009
  -0.03838171  0.11079846  0.07834634       0.009
  -0.00000000  0.13295815  0.04700780       0.009
   0.03838171  0.11079846  0.03133854       0.009
   0.07676342  0.08863877  0.01566927       0.009
   0.11514513  0.06647907 -0.00000000       0.009
  -0.07676342  0.17727753  0.07834634       0.009
  -0.03838171  0.15511784  0.06267707       0.009
  -0.00000000 -0.08863877  0.12535414       0.009
   0.03838171 -0.11079846  0.10968488       0.009
   0.07676342 -0.13295815  0.09401561       0.009
   0.11514513 -0.15511784  0.07834634       0.009
  -0.07676342 -0.04431938  0.15669268       0.009
  -0.03838171 -0.06647907  0.14102341       0.009
  -0.00000000 -0.04431938  0.10968488       0.009
   0.03838171 -0.06647907  0.09401561       0.009
   0.07676342 -0.08863877  0.07834634       0.009
   0.11514513 -0.11079846  0.06267707       0.009
  -0.07676342  0.00000000  0.14102341       0.009
  -0.03838171 -0.02215969  0.12535414       0.009
  -0.00000000  0.00000000  0.14102341       0.005
   0.03838171 -0.02215969  0.12535414       0.009
   0.07676342 -0.04431938  0.10968488       0.009
   0.11514513 -0.06647907  0.09401561       0.005
  -0.00000000  0.04431938  0.12535414       0.009
   0.03838171  0.02215969  0.10968488       0.009
   0.07676342  0.00000000  0.09401561       0.009
   0.11514513 -0.02215969  0.07834634       0.009
  -0.07676342  0.08863877  0.15669268       0.009
  -0.03838171  0.06647907  0.14102341       0.009
  -0.00000000  0.08863877  0.10968488       0.009
   0.03838171  0.06647907  0.09401561       0.009
   0.07676342  0.04431938  0.07834634       0.009
   0.11514513  0.02215969  0.06267707       0.009
  -0.07676342  0.13295815  0.14102341       0.009
  -0.03838171  0.11079846  0.12535414       0.009
  -0.00000000  0.13295815  0.09401561       0.005
   0.03838171  0.11079846  0.07834634       0.009
   0.07676342  0.08863877  0.06267707       0.009
   0.11514513  0.06647907  0.04700780       0.005
 
 k-points in reciprocal lattice and weights: k-points                                
   0.00000000  0.00000000  0.00000000       0.005
   0.16666667  0.00000000  0.00000000       0.009
   0.33333333  0.00000000  0.00000000       0.009
   0.50000000  0.00000000  0.00000000       0.005
  -0.00000000  0.16666667 -0.00000000       0.009
   0.16666667  0.16666667  0.00000000       0.009
   0.33333333  0.16666667 -0.00000000       0.009
   0.50000000  0.16666667  0.00000000       0.009
  -0.33333333  0.16666667 -0.00000000       0.009
  -0.16666667  0.16666667 -0.00000000       0.009
   0.00000000  0.33333333 -0.00000000       0.009
   0.16666667  0.33333333  0.00000000       0.009
   0.33333333  0.33333333  0.00000000       0.009
   0.50000000  0.33333333  0.00000000       0.009
  -0.33333333  0.33333333 -0.00000000       0.009
  -0.16666667  0.33333333 -0.00000000       0.009
   0.00000000  0.50000000 -0.00000000       0.005
   0.16666667  0.50000000  0.00000000       0.009
   0.33333333  0.50000000  0.00000000       0.009
   0.50000000  0.50000000  0.00000000       0.005
   0.00000000  0.00000000  0.16666667       0.009
   0.16666667  0.00000000  0.16666667       0.009
   0.33333333 -0.00000000  0.16666667       0.009
   0.50000000 -0.00000000  0.16666667       0.009
  -0.33333333 -0.00000000  0.16666667       0.009
  -0.16666667  0.00000000  0.16666667       0.009
  -0.00000000  0.16666667  0.16666667       0.009
   0.16666667  0.16666667  0.16666667       0.009
   0.33333333  0.16666667  0.16666667       0.009
   0.50000000  0.16666667  0.16666667       0.009
  -0.33333333  0.16666667  0.16666667       0.009
  -0.16666667  0.16666667  0.16666667       0.009
  -0.00000000  0.33333333  0.16666667       0.009
   0.16666667  0.33333333  0.16666667       0.009
   0.33333333  0.33333333  0.16666667       0.009
   0.50000000  0.33333333  0.16666667       0.009
  -0.33333333  0.33333333  0.16666667       0.009
  -0.16666667  0.33333333  0.16666667       0.009
  -0.00000000  0.50000000  0.16666667       0.009
   0.16666667  0.50000000  0.16666667       0.009
   0.33333333  0.50000000  0.16666667       0.009
   0.50000000  0.50000000  0.16666667       0.009
  -0.33333333  0.50000000  0.16666667       0.009
  -0.16666667  0.50000000  0.16666667       0.009
  -0.00000000 -0.33333333  0.16666667       0.009
   0.16666667 -0.33333333  0.16666667       0.009
   0.33333333 -0.33333333  0.16666667       0.009
   0.50000000 -0.33333333  0.16666667       0.009
  -0.33333333 -0.33333333  0.16666667       0.009
  -0.16666667 -0.33333333  0.16666667       0.009
   0.00000000 -0.16666667  0.16666667       0.009
   0.16666667 -0.16666667  0.16666667       0.009
   0.33333333 -0.16666667  0.16666667       0.009
   0.50000000 -0.16666667  0.16666667       0.009
  -0.33333333 -0.16666667  0.16666667       0.009
  -0.16666667 -0.16666667  0.16666667       0.009
   0.00000000  0.00000000  0.33333333       0.009
   0.16666667  0.00000000  0.33333333       0.009
   0.33333333  0.00000000  0.33333333       0.009
   0.50000000 -0.00000000  0.33333333       0.009
  -0.33333333  0.00000000  0.33333333       0.009
  -0.16666667  0.00000000  0.33333333       0.009
  -0.00000000  0.16666667  0.33333333       0.009
   0.16666667  0.16666667  0.33333333       0.009
   0.33333333  0.16666667  0.33333333       0.009
   0.50000000  0.16666667  0.33333333       0.009
  -0.33333333  0.16666667  0.33333333       0.009
  -0.16666667  0.16666667  0.33333333       0.009
  -0.00000000  0.33333333  0.33333333       0.009
   0.16666667  0.33333333  0.33333333       0.009
   0.33333333  0.33333333  0.33333333       0.009
   0.50000000  0.33333333  0.33333333       0.009
  -0.33333333  0.33333333  0.33333333       0.009
  -0.16666667  0.33333333  0.33333333       0.009
   0.00000000  0.50000000  0.33333333       0.009
   0.16666667  0.50000000  0.33333333       0.009
   0.33333333  0.50000000  0.33333333       0.009
   0.50000000  0.50000000  0.33333333       0.009
  -0.33333333  0.50000000  0.33333333       0.009
  -0.16666667  0.50000000  0.33333333       0.009
   0.00000000 -0.33333333  0.33333333       0.009
   0.16666667 -0.33333333  0.33333333       0.009
   0.33333333 -0.33333333  0.33333333       0.009
   0.50000000 -0.33333333  0.33333333       0.009
  -0.33333333 -0.33333333  0.33333333       0.009
  -0.16666667 -0.33333333  0.33333333       0.009
   0.00000000 -0.16666667  0.33333333       0.009
   0.16666667 -0.16666667  0.33333333       0.009
   0.33333333 -0.16666667  0.33333333       0.009
   0.50000000 -0.16666667  0.33333333       0.009
  -0.33333333 -0.16666667  0.33333333       0.009
  -0.16666667 -0.16666667  0.33333333       0.009
   0.00000000  0.00000000  0.50000000       0.005
   0.16666667  0.00000000  0.50000000       0.009
   0.33333333  0.00000000  0.50000000       0.009
   0.50000000 -0.00000000  0.50000000       0.005
  -0.00000000  0.16666667  0.50000000       0.009
   0.16666667  0.16666667  0.50000000       0.009
   0.33333333  0.16666667  0.50000000       0.009
   0.50000000  0.16666667  0.50000000       0.009
  -0.33333333  0.16666667  0.50000000       0.009
  -0.16666667  0.16666667  0.50000000       0.009
   0.00000000  0.33333333  0.50000000       0.009
   0.16666667  0.33333333  0.50000000       0.009
   0.33333333  0.33333333  0.50000000       0.009
   0.50000000  0.33333333  0.50000000       0.009
  -0.33333333  0.33333333  0.50000000       0.009
  -0.16666667  0.33333333  0.50000000       0.009
  -0.00000000  0.50000000  0.50000000       0.005
   0.16666667  0.50000000  0.50000000       0.009
   0.33333333  0.50000000  0.50000000       0.009
   0.50000000  0.50000000  0.50000000       0.005
 
 position of ions in fractional coordinates (direct lattice) 
   0.00000000  0.00000000  0.00000000
 
 position of ions in cartesian coordinates  (Angst):
   0.00000000  0.00000000  0.00000000
 


--------------------------------------------------------------------------------------------------------


 k-point  1 :   0.0000 0.0000 0.0000  plane waves:     701
 k-point  2 :   0.1667 0.0000 0.0000  plane waves:     673
 k-point  3 :   0.3333 0.0000 0.0000  plane waves:     685
 k-point  4 :   0.5000 0.0000 0.0000  plane waves:     700
 k-point  5 :  -0.0000 0.1667-0.0000  plane waves:     673
 k-point  6 :   0.1667 0.1667 0.0000  plane waves:     681
 k-point  7 :   0.3333 0.1667-0.0000  plane waves:     680
 k-point  8 :   0.5000 0.1667 0.0000  plane waves:     678
 k-point  9 :  -0.3333 0.1667-0.0000  plane waves:     684
 k-point 10 :  -0.1667 0.1667-0.0000  plane waves:     674
 k-point 11 :   0.0000 0.3333-0.0000  plane waves:     685
 k-point 12 :   0.1667 0.3333 0.0000  plane waves:     680
 k-point 13 :   0.3333 0.3333 0.0000  plane waves:     693
 k-point 14 :   0.5000 0.3333 0.0000  plane waves:     686
 k-point 15 :  -0.3333 0.3333-0.0000  plane waves:     680
 k-point 16 :  -0.1667 0.3333-0.0000  plane waves:     684
 k-point 17 :   0.0000 0.5000-0.0000  plane waves:     700
 k-point 18 :   0.1667 0.5000 0.0000  plane waves:     678
 k-point 19 :   0.3333 0.5000 0.0000  plane waves:     686
 k-point 20 :   0.5000 0.5000 0.0000  plane waves:     692
 k-point 21 :   0.0000 0.0000 0.1667  plane waves:     673
 k-point 22 :   0.1667 0.0000 0.1667  plane waves:     681
 k-point 23 :   0.3333-0.0000 0.1667  plane waves:     680
 k-point 24 :   0.5000-0.0000 0.1667  plane waves:     678
 k-point 25 :  -0.3333-0.0000 0.1667  plane waves:     684
 k-point 26 :  -0.1667 0.0000 0.1667  plane waves:     674
 k-point 27 :  -0.0000 0.1667 0.1667  plane waves:     681
 k-point 28 :   0.1667 0.1667 0.1667  plane waves:     673
 k-point 29 :   0.3333 0.1667 0.1667  plane waves:     674
 k-point 30 :   0.5000 0.1667 0.1667  plane waves:     684
 k-point 31 :  -0.3333 0.1667 0.1667  plane waves:     678
 k-point 32 :  -0.1667 0.1667 0.1667  plane waves:     680
 k-point 33 :  -0.0000 0.3333 0.1667  plane waves:     680
 k-point 34 :   0.1667 0.3333 0.1667  plane waves:     674
 k-point 35 :   0.3333 0.3333 0.1667  plane waves:     680
 k-point 36 :   0.5000 0.3333 0.1667  plane waves:     676
 k-point 37 :  -0.3333 0.3333 0.1667  plane waves:     692
 k-point 38 :  -0.1667 0.3333 0.1667  plane waves:     676
 k-point 39 :  -0.0000 0.5000 0.1667  plane waves:     678
 k-point 40 :   0.1667 0.5000 0.1667  plane waves:     684
 k-point 41 :   0.3333 0.5000 0.1667  plane waves:     676
 k-point 42 :   0.5000 0.5000 0.1667  plane waves:     686
 k-point 43 :  -0.3333 0.5000 0.1667  plane waves:     690
 k-point 44 :  -0.1667 0.5000 0.1667  plane waves:     692
 k-point 45 :  -0.0000-0.3333 0.1667  plane waves:     684
 k-point 46 :   0.1667-0.3333 0.1667  plane waves:     678
 k-point 47 :   0.3333-0.3333 0.1667  plane waves:     692
 k-point 48 :   0.5000-0.3333 0.1667  plane waves:     690
 k-point 49 :  -0.3333-0.3333 0.1667  plane waves:     686
 k-point 50 :  -0.1667-0.3333 0.1667  plane waves:     676
 k-point 51 :   0.0000-0.1667 0.1667  plane waves:     674
 k-point 52 :   0.1667-0.1667 0.1667  plane waves:     680
 k-point 53 :   0.3333-0.1667 0.1667  plane waves:     676
 k-point 54 :   0.5000-0.1667 0.1667  plane waves:     692
 k-point 55 :  -0.3333-0.1667 0.1667  plane waves:     676
 k-point 56 :  -0.1667-0.1667 0.1667  plane waves:     680
 k-point 57 :   0.0000 0.0000 0.3333  plane waves:     685
 k-point 58 :   0.1667 0.0000 0.3333  plane waves:     680
 k-point 59 :   0.3333 0.0000 0.3333  plane waves:     693
 k-point 60 :   0.5000-0.0000 0.3333  plane waves:     686
 k-point 61 :  -0.3333 0.0000 0.3333  plane waves:     680
 k-point 62 :  -0.1667 0.0000 0.3333  plane waves:     684
 k-point 63 :  -0.0000 0.1667 0.3333  plane waves:     680
 k-point 64 :   0.1667 0.1667 0.3333  plane waves:     674
 k-point 65 :   0.3333 0.1667 0.3333  plane waves:     680
 k-point 66 :   0.5000 0.1667 0.3333  plane waves:     676
 k-point 67 :  -0.3333 0.1667 0.3333  plane waves:     692
 k-point 68 :  -0.1667 0.1667 0.3333  plane waves:     676
 k-point 69 :  -0.0000 0.3333 0.3333  plane waves:     693
 k-point 70 :   0.1667 0.3333 0.3333  plane waves:     680
 k-point 71 :   0.3333 0.3333 0.3333  plane waves:     685
 k-point 72 :   0.5000 0.3333 0.3333  plane waves:     684
 k-point 73 :  -0.3333 0.3333 0.3333  plane waves:     680
 k-point 74 :  -0.1667 0.3333 0.3333  plane waves:     686
 k-point 75 :   0.0000 0.5000 0.3333  plane waves:     686
 k-point 76 :   0.1667 0.5000 0.3333  plane waves:     676
 k-point 77 :   0.3333 0.5000 0.3333  plane waves:     684
 k-point 78 :   0.5000 0.5000 0.3333  plane waves:     678
 k-point 79 :  -0.3333 0.5000 0.3333  plane waves:     692
 k-point 80 :  -0.1667 0.5000 0.3333  plane waves:     690
 k-point 81 :   0.0000-0.3333 0.3333  plane waves:     680
 k-point 82 :   0.1667-0.3333 0.3333  plane waves:     692
 k-point 83 :   0.3333-0.3333 0.3333  plane waves:     680
 k-point 84 :   0.5000-0.3333 0.3333  plane waves:     692
 k-point 85 :  -0.3333-0.3333 0.3333  plane waves:     680
 k-point 86 :  -0.1667-0.3333 0.3333  plane waves:     692
 k-point 87 :   0.0000-0.1667 0.3333  plane waves:     684
 k-point 88 :   0.1667-0.1667 0.3333  plane waves:     676
 k-point 89 :   0.3333-0.1667 0.3333  plane waves:     686
 k-point 90 :   0.5000-0.1667 0.3333  plane waves:     690
 k-point 91 :  -0.3333-0.1667 0.3333  plane waves:     692
 k-point 92 :  -0.1667-0.1667 0.3333  plane waves:     678
 k-point 93 :   0.0000 0.0000 0.5000  plane waves:     700
 k-point 94 :   0.1667 0.0000 0.5000  plane waves:     678
 k-point 95 :   0.3333 0.0000 0.5000  plane waves:     686
 k-point 96 :   0.5000-0.0000 0.5000  plane waves:     692
 k-point 97 :  -0.0000 0.1667 0.5000  plane waves:     678
 k-point 98 :   0.1667 0.1667 0.5000  plane waves:     684
 k-point 99 :   0.3333 0.1667 0.5000  plane waves:     676
 k-point ** :   0.5000 0.1667 0.5000  plane waves:     686
 k-point ** :  -0.3333 0.1667 0.5000  plane waves:     690
 k-point ** :  -0.1667 0.1667 0.5000  plane waves:     692
 k-point ** :   0.0000 0.3333 0.5000  plane waves:     686
 k-point ** :   0.1667 0.3333 0.5000  plane waves:     676
 k-point ** :   0.3333 0.3333 0.5000  plane waves:     684
 k-point ** :   0.5000 0.3333 0.5000  plane waves:     678
 k-point ** :  -0.3333 0.3333 0.5000  plane waves:     692
 k-point ** :  -0.1667 0.3333 0.5000  plane waves:     690
 k-point ** :  -0.0000 0.5000 0.5000  plane waves:     692
 k-point ** :   0.1667 0.5000 0.5000  plane waves:     686
 k-point ** :   0.3333 0.5000 0.5000  plane waves:     678
 k-point ** :   0.5000 0.5000 0.5000  plane waves:     700

 maximum and minimum number of plane-waves per node :        99       73

 maximum number of plane-waves:       701
 maximum index in each direction: 
   IXMAX=    6   IYMAX=    6   IZMAX=    6
   IXMIN=   -6   IYMIN=   -6   IZMIN=   -6


 parallel 3D FFT for wavefunctions:
    minimum data exchange during FFTs selected (reduces bandwidth)
 parallel 3D FFT for charge:
    minimum data exchange during FFTs selected (reduces bandwidth)


 total amount of memory used by VASP MPI-rank0    34770. kBytes
=======================================================================

   base      :      30000. kBytes
   nonl-proj :       1485. kBytes
   fftplans  :       1866. kBytes
   grid      :        602. kBytes
   one-center:         15. kBytes
   wavefun   :        802. kBytes
 
     INWAV:  cpu time    0.4170: real time    0.4170
 Broyden mixing: mesh for mixing (old mesh)
   NGX = 13   NGY = 13   NGZ = 13
  (NGX  = 56   NGY  = 56   NGZ  = 56)
  gives a total of   2197 points

 charge density for first step will be calculated from the start-wavefunctions


--------------------------------------------------------------------------------------------------------


 Maximum index for augmentation-charges         7366 (set IRDMAX)


--------------------------------------------------------------------------------------------------------


 initial charge from wavefunction
 First call to EWALD:  gamma=   0.458
 Maximum number of real-space cells 3x 3x 3
 Maximum number of reciprocal cells 3x 3x 3

    FEWALD:  cpu time    0.0020: real time    0.0020


--------------------------------------- Iteration      1(   1)  ---------------------------------------


    POTLOK:  cpu time    0.0190: real time    0.0195
    SETDIJ:  cpu time    0.0169: real time    0.0169
     EDDAV:  cpu time    0.3328: real time    0.3330
       DOS:  cpu time    0.0004: real time    0.0004
    --------------------------------------------
      LOOP:  cpu time    0.3691: real time    0.3698

 eigenvalue-minimisations  :  2560
 total energy-change (2. order) : 0.1752792E+00  (-0.8006760E-11)
 number of electron      18.0000000 magnetization 
 augmentation part        2.9551812 magnetization 

 Free energy of the ion-electron system (eV)
  ---------------------------------------------------
  alpha Z        PSCENC =        65.89697999
  Ewald energy   TEWEN  =     -1741.63824267
  -Hartree energ DENC   =      -658.91325758
  -exchange      EXHF   =         0.00000000
  -V(xc)+E(xc)   XCENC  =       -69.28754171
  PAW double counting   =      2283.32534945    -2199.20352951
  entropy T*S    EENTRO =         0.00000000
  eigenvalues    EBANDS =      -319.90940280
  atomic energy  EATOM  =      2639.90492407
  Solvation  Ediel_sol  =         0.00000000
  ---------------------------------------------------
  free energy    TOTEN  =         0.17527923 eV

  energy without entropy =        0.17527923  energy(sigma->0) =        0.17527923


--------------------------------------------------------------------------------------------------------




--------------------------------------- Iteration      1(   2)  ---------------------------------------


     EDDAV:  cpu time    0.3216: real time    0.3216
       DOS:  cpu time    0.0004: real time    0.0004
    --------------------------------------------
      LOOP:  cpu time    0.3220: real time    0.3220

 eigenvalue-minimisations  :  2512
 total energy-change (2. order) : 0.0000000E+00  (-0.3998051E-11)
 number of electron      18.0000000 magnetization 
 augmentation part        2.9551812 magnetization 

 Free energy of the ion-electron system (eV)
  ---------------------------------------------------
  alpha Z        PSCENC =        65.89697999
  Ewald energy   TEWEN  =     -1741.63824267
  -Hartree energ DENC   =      -658.91325758
  -exchange      EXHF   =         0.00000000
  -V(xc)+E(xc)   XCENC  =       -69.28754171
  PAW double counting   =      2283.32534945    -2199.20352951
  entropy T*S    EENTRO =         0.00000000
  eigenvalues    EBANDS =      -319.90940280
  atomic energy  EATOM  =      2639.90492407
  Solvation  Ediel_sol  =         0.00000000
  ---------------------------------------------------
  free energy    TOTEN  =         0.17527923 eV

  energy without entropy =        0.17527923  energy(sigma->0) =        0.17527923


--------------------------------------------------------------------------------------------------------




--------------------------------------- Iteration      1(   3)  ---------------------------------------


     EDDAV:  cpu time    0.3304: real time    0.3304
       DOS:  cpu time    0.0004: real time    0.0006
    --------------------------------------------
      LOOP:  cpu time    0.3308: real time    0.3310

 eigenvalue-minimisations  :  2528
 total energy-change (2. order) : 0.3637979E-11  (-0.2411553E-11)
 number of electron      18.0000000 magnetization 
 augmentation part        2.9551812 magnetization 

 Free energy of the ion-electron system (eV)
  ---------------------------------------------------
  alpha Z        PSCENC =        65.89697999
  Ewald energy   TEWEN  =     -1741.63824267
  -Hartree energ DENC   =      -658.91325758
  -exchange      EXHF   =         0.00000000
  -V(xc)+E(xc)   XCENC  =       -69.28754171
  PAW double counting   =      2283.32534945    -2199.20352951
  entropy T*S    EENTRO =         0.00000000
  eigenvalues    EBANDS =      -319.90940280
  atomic energy  EATOM  =      2639.90492407
  Solvation  Ediel_sol  =         0.00000000
  ---------------------------------------------------
  free energy    TOTEN  =         0.17527923 eV

  energy without entropy =        0.17527923  energy(sigma->0) =        0.17527923


--------------------------------------------------------------------------------------------------------




--------------------------------------- Iteration      1(   4)  ---------------------------------------


     EDDAV:  cpu time    0.3094: real time    0.3094
       DOS:  cpu time    0.0004: real time    0.0004
    --------------------------------------------
      LOOP:  cpu time    0.3098: real time    0.3098

 eigenvalue-minimisations  :  2376
 total energy-change (2. order) :-0.4547474E-12  (-0.1467224E-11)
 number of electron      18.0000000 magnetization 
 augmentation part        2.9551812 magnetization 

 Free energy of the ion-electron system (eV)
  ---------------------------------------------------
  alpha Z        PSCENC =        65.89697999
  Ewald energy   TEWEN  =     -1741.63824267
  -Hartree energ DENC   =      -658.91325758
  -exchange      EXHF   =         0.00000000
  -V(xc)+E(xc)   XCENC  =       -69.28754171
  PAW double counting   =      2283.32534945    -2199.20352951
  entropy T*S    EENTRO =         0.00000000
  eigenvalues    EBANDS =      -319.90940280
  atomic energy  EATOM  =      2639.90492407
  Solvation  Ediel_sol  =         0.00000000
  ---------------------------------------------------
  free energy    TOTEN  =         0.17527923 eV

  energy without entropy =        0.17527923  energy(sigma->0) =        0.17527923


--------------------------------------------------------------------------------------------------------




--------------------------------------- Iteration      1(   5)  ---------------------------------------


     EDDAV:  cpu time    0.3145: real time    0.3145
       DOS:  cpu time    0.0004: real time    0.0004
    CHARGE:  cpu time    0.0249: real time    0.0249
    MIXING:  cpu time    0.0011: real time    0.0011
    --------------------------------------------
      LOOP:  cpu time    0.3409: real time    0.3409

 eigenvalue-minimisations  :  2392
 total energy-change (2. order) : 0.1227818E-10  (-0.8047309E-12)
 number of electron      18.0000000 magnetization 
 augmentation part        2.9551811 magnetization 

 Broyden mixing:
  rms(total) = 0.16782E-06    rms(broyden)= 0.16609E-06
  rms(prec ) = 0.46456E-06
  weight for this iteration     100.00

 Free energy of the ion-electron system (eV)
  ---------------------------------------------------
  alpha Z        PSCENC =        65.89697999
  Ewald energy   TEWEN  =     -1741.63824267
  -Hartree energ DENC   =      -658.91325758
  -exchange      EXHF   =         0.00000000
  -V(xc)+E(xc)   XCENC  =       -69.28754171
  PAW double counting   =      2283.32534945    -2199.20352951
  entropy T*S    EENTRO =         0.00000000
  eigenvalues    EBANDS =      -319.90940280
  atomic energy  EATOM  =      2639.90492407
  Solvation  Ediel_sol  =         0.00000000
  ---------------------------------------------------
  free energy    TOTEN  =         0.17527923 eV

  energy without entropy =        0.17527923  energy(sigma->0) =        0.17527923


--------------------------------------------------------------------------------------------------------




--------------------------------------- Iteration      1(   6)  ---------------------------------------


    POTLOK:  cpu time    0.0160: real time    0.0160
    SETDIJ:  cpu time    0.0162: real time    0.0162
     EDDAV:  cpu time    0.3106: real time    0.3106
       DOS:  cpu time    0.0004: real time    0.0004
    --------------------------------------------
      LOOP:  cpu time    0.3433: real time    0.3433

 eigenvalue-minimisations  :  2360
 total energy-change (2. order) : 0.2273737E-10  (-0.3994209E-12)
 number of electron      18.0000000 magnetization 
 augmentation part        2.9551811 magnetization 

 Free energy of the ion-electron system (eV)
  ---------------------------------------------------
  alpha Z        PSCENC =        65.89697999
  Ewald energy   TEWEN  =     -1741.63824267
  -Hartree energ DENC   =      -658.91324999
  -exchange      EXHF   =         0.00000000
  -V(xc)+E(xc)   XCENC  =       -69.28754188
  PAW double counting   =      2283.32532559    -2199.20350579
  entropy T*S    EENTRO =         0.00000000
  eigenvalues    EBANDS =      -319.90941008
  atomic energy  EATOM  =      2639.90492407
  Solvation  Ediel_sol  =         0.00000000
  ---------------------------------------------------
  free energy    TOTEN  =         0.17527923 eV

  energy without entropy =        0.17527923  energy(sigma->0) =        0.17527923


--------------------------------------------------------------------------------------------------------




 average (electrostatic) potential at core
  the test charge radii are     1.2024
  (the norm of the test charge is              1.0000)
       1-112.4764
 
 
 
 E-fermi :   1.9126     XC(G=0):  -8.1611     alpha+bet : -7.5793


 k-point     1 :       0.0000    0.0000    0.0000
  band No.  band energies     occupation 
      1     -28.0604      2.00000
      2     -28.0604      2.00000
      3     -28.0538      2.00000
      4     -28.0538      2.00000
      5     -28.0538      2.00000
      6     -21.0830      2.00000
      7       1.8613      2.00000
      8       1.8613      2.00000
      9       1.8613      2.00000
     10       3.8274      0.00000
     11      11.0142      0.00000
     12      11.0142      0.00000
     13      11.0142      0.00000
     14      11.2845      0.00000
     15      13.5180      0.00000
     16      13.5180      0.00000

 k-point     2 :       0.1667    0.0000    0.0000
  band No.  band energies     occupation 
      1     -28.0426      2.00000
      2     -28.0426      2.00000
      3     -28.0351      2.00000
      4     -28.0351      2.00000
      5     -28.0335      2.00000
      6     -21.0586      2.00000
      7       0.5573      2.00000
      8       1.7537      2.00000
      9       1.7537      2.00000
     10       5.2532      0.00000
     11       9.9715      0.00000
     12      11.2215      0.00000
     13      11.2215      0.00000
     14      12.3282      0.00000
     15      12.5748      0.00000
     16      12.5748      0.00000

 k-point     3 :       0.3333    0.0000    0.0000
  band No.  band energies     occupation 
      1     -28.0478      2.00000
      2     -28.0464      2.00000
      3     -28.0464      2.00000
      4     -28.0415      2.00000
      5     -28.0415      2.00000
      6     -21.0100      2.00000
      7      -0.7650      2.00000
      8       1.5519      2.00000
      9       1.5519      2.00000
     10       6.2289      0.00000
     11      10.8160      0.00000
     12      10.8160      0.00000
     13      10.9445      0.00000
     14      11.4594      0.00000
     15      13.3809      0.00000
     16      13.3809      0.00000

 k-point     4 :       0.5000    0.0000    0.0000
  band No.  band energies     occupation 
      1     -28.0617      2.00000
      2     -28.0617      2.00000
      3     -28.0598      2.00000
      4     -28.0472      2.00000
      5     -28.0472      2.00000
      6     -20.9854      2.00000
      7      -1.2454      2.00000
      8       1.4569      2.00000
      9       1.4569      2.00000
     10       6.2938      0.00000
     11      10.5377      0.00000
     12      10.5377      0.00000
     13      10.8742      0.00000
     14      13.2655      0.00000
     15      14.5343      0.00000
     16      14.5343      0.00000

 k-point     5 :      -0.0000    0.1667   -0.0000
  band No.  band energies     occupation 
      1     -28.0426      2.00000
      2     -28.0426      2.00000
      3     -28.0351      2.00000
      4     -28.0351      2.00000
      5     -28.0335      2.00000
      6     -21.0586      2.00000
      7       0.5573      2.00000
      8       1.7537      2.00000
      9       1.7537      2.00000
     10       5.2532      0.00000
     11       9.9715      0.00000
     12      11.2215      0.00000
     13      11.2215      0.00000
     14      12.3282      0.00000
     15      12.5748      0.00000
     16      12.5748      0.00000

 k-point     6 :       0.1667    0.1667    0.0000
  band No.  band energies     occupation 
      1     -28.0531      2.00000
      2     -28.0447      2.00000
      3     -28.0441      2.00000
      4     -28.0441      2.00000
      5     -28.0425      2.00000
      6     -21.0506      2.00000
      7       0.5341      2.00000
      8       1.5213      2.00000
      9       1.5213      2.00000
     10       5.8104      0.00000
     11       9.3125      0.00000
     12      10.7964      0.00000
     13      11.7322      0.00000
     14      11.7322      0.00000
     15      13.6422      0.00000
     16      14.2353      0.00000

 k-point     7 :       0.3333    0.1667   -0.0000
  band No.  band energies     occupation 
      1     -28.0486      2.00000
      2     -28.0484      2.00000
      3     -28.0426      2.00000
      4     -28.0405      2.00000
      5     -28.0335      2.00000
      6     -21.0101      2.00000
      7      -0.4299      2.00000
      8       1.2065      2.00000
      9       1.2743      2.00000
     10       7.0013      0.00000
     11       9.3315      0.00000
     12       9.7827      0.00000
     13      11.8359      0.00000
     14      12.9759      0.00000
     15      13.6195      0.00000
     16      14.2560      0.00000

 k-point     8 :       0.5000    0.1667    0.0000
  band No.  band energies     occupation 
      1     -28.0526      2.00000
      2     -28.0423      2.00000
      3     -28.0385      2.00000
      4     -28.0375      2.00000
      5     -28.0328      2.00000
      6     -20.9772      2.00000
      7      -1.0063      2.00000
      8       0.8046      2.00000
      9       1.2407      2.00000
     10       7.2916      0.00000
     11       9.2686      0.00000
     12      11.2801      0.00000
     13      11.3135      0.00000
     14      13.1528      0.00000
     15      14.0202      0.00000
     16      14.6734      0.00000

 k-point     9 :      -0.3333    0.1667   -0.0000
  band No.  band energies     occupation 
      1     -28.0555      2.00000
      2     -28.0507      2.00000
      3     -28.0432      2.00000
      4     -28.0403      2.00000
      5     -28.0383      2.00000
      6     -20.9855      2.00000
      7      -0.8606      2.00000
      8       0.6890      2.00000
      9       1.4482      2.00000
     10       7.3540      0.00000
     11       9.4176      0.00000
     12      11.0936      0.00000
     13      11.0955      0.00000
     14      13.0073      0.00000
     15      13.5098      0.00000
     16      14.1764      0.00000

 k-point    10 :      -0.1667    0.1667   -0.0000
  band No.  band energies     occupation 
      1     -28.0460      2.00000
      2     -28.0391      2.00000
      3     -28.0382      2.00000
      4     -28.0339      2.00000
      5     -28.0304      2.00000
      6     -21.0263      2.00000
      7      -0.1656      2.00000
      8       1.1078      2.00000
      9       1.7136      2.00000
     10       6.5776      0.00000
     11       9.6960      0.00000
     12      10.3206      0.00000
     13      11.4744      0.00000
     14      11.6400      0.00000
     15      13.6074      0.00000
     16      13.9370      0.00000

 k-point    11 :       0.0000    0.3333   -0.0000
  band No.  band energies     occupation 
      1     -28.0478      2.00000
      2     -28.0464      2.00000
      3     -28.0464      2.00000
      4     -28.0415      2.00000
      5     -28.0415      2.00000
      6     -21.0100      2.00000
      7      -0.7650      2.00000
      8       1.5519      2.00000
      9       1.5519      2.00000
     10       6.2289      0.00000
     11      10.8160      0.00000
     12      10.8160      0.00000
     13      10.9445      0.00000
     14      11.4594      0.00000
     15      13.3809      0.00000
     16      13.3809      0.00000

 k-point    12 :       0.1667    0.3333    0.0000
  band No.  band energies     occupation 
      1     -28.0486      2.00000
      2     -28.0484      2.00000
      3     -28.0426      2.00000
      4     -28.0405      2.00000
      5     -28.0335      2.00000
      6     -21.0101      2.00000
      7      -0.4299      2.00000
      8       1.2065      2.00000
      9       1.2743      2.00000
     10       7.0013      0.00000
     11       9.3315      0.00000
     12       9.7827      0.00000
     13      11.8359      0.00000
     14      12.9759      0.00000
     15      13.6195      0.00000
     16      14.2560      0.00000

 k-point    13 :       0.3333    0.3333    0.0000
  band No.  band energies     occupation 
      1     -28.0592      2.00000
      2     -28.0529      2.00000
      3     -28.0529      2.00000
      4     -28.0526      2.00000
      5     -28.0471      2.00000
      6     -20.9860      2.00000
      7      -0.6216      2.00000
      8       0.9402      2.00000
      9       0.9402      2.00000
     10       6.9771      0.00000
     11       8.2064      0.00000
     12      10.8898      0.00000
     13      13.2804      0.00000
     14      13.2804      0.00000
     15      14.9041      0.00000
     16      16.1767      0.00000

 k-point    14 :       0.5000    0.3333    0.0000
  band No.  band energies     occupation 
      1     -28.0517      2.00000
      2     -28.0510      2.00000
      3     -28.0494      2.00000
      4     -28.0461      2.00000
      5     -28.0408      2.00000
      6     -20.9613      2.00000
      7      -0.8105      2.00000
      8       0.3800      2.00000
      9       0.8578      2.00000
     10       7.0847      0.00000
     11       8.6917      0.00000
     12      11.2842      0.00000
     13      13.0847      0.00000
     14      14.0089      0.00000
     15      14.9959      0.00000
     16      16.1566      0.00000

 k-point    15 :      -0.3333    0.3333   -0.0000
  band No.  band energies     occupation 
      1     -28.0513      2.00000
      2     -28.0461      2.00000
      3     -28.0445      2.00000
      4     -28.0417      2.00000
      5     -28.0350      2.00000
      6     -20.9610      2.00000
      7      -0.4375      2.00000
      8      -0.3463      2.00000
      9       1.0913      2.00000
     10       7.6023      0.00000
     11      10.0842      0.00000
     12      11.4947      0.00000
     13      11.5444      0.00000
     14      12.2627      0.00000
     15      13.4647      0.00000
     16      16.3521      0.00000

 k-point    16 :      -0.1667    0.3333   -0.0000
  band No.  band energies     occupation 
      1     -28.0555      2.00000
      2     -28.0507      2.00000
      3     -28.0432      2.00000
      4     -28.0403      2.00000
      5     -28.0383      2.00000
      6     -20.9855      2.00000
      7      -0.8606      2.00000
      8       0.6890      2.00000
      9       1.4482      2.00000
     10       7.3540      0.00000
     11       9.4176      0.00000
     12      11.0936      0.00000
     13      11.0955      0.00000
     14      13.0073      0.00000
     15      13.5098      0.00000
     16      14.1764      0.00000

 k-point    17 :       0.0000    0.5000   -0.0000
  band No.  band energies     occupation 
      1     -28.0617      2.00000
      2     -28.0617      2.00000
      3     -28.0598      2.00000
      4     -28.0472      2.00000
      5     -28.0472      2.00000
      6     -20.9854      2.00000
      7      -1.2454      2.00000
      8       1.4569      2.00000
      9       1.4569      2.00000
     10       6.2938      0.00000
     11      10.5377      0.00000
     12      10.5377      0.00000
     13      10.8742      0.00000
     14      13.2655      0.00000
     15      14.5343      0.00000
     16      14.5343      0.00000

 k-point    18 :       0.1667    0.5000    0.0000
  band No.  band energies     occupation 
      1     -28.0526      2.00000
      2     -28.0423      2.00000
      3     -28.0385      2.00000
      4     -28.0375      2.00000
      5     -28.0328      2.00000
      6     -20.9772      2.00000
      7      -1.0063      2.00000
      8       0.8046      2.00000
      9       1.2407      2.00000
     10       7.2916      0.00000
     11       9.2686      0.00000
     12      11.2801      0.00000
     13      11.3135      0.00000
     14      13.1528      0.00000
     15      14.0202      0.00000
     16      14.6734      0.00000

 k-point    19 :       0.3333    0.5000    0.0000
  band No.  band energies     occupation 
      1     -28.0517      2.00000
      2     -28.0510      2.00000
      3     -28.0494      2.00000
      4     -28.0461      2.00000
      5     -28.0408      2.00000
      6     -20.9613      2.00000
      7      -0.8105      2.00000
      8       0.3800      2.00000
      9       0.8578      2.00000
     10       7.0847      0.00000
     11       8.6917      0.00000
     12      11.2842      0.00000
     13      13.0847      0.00000
     14      14.0089      0.00000
     15      14.9959      0.00000
     16      16.1566      0.00000

 k-point    20 :       0.5000    0.5000    0.0000
  band No.  band energies     occupation 
      1     -28.0662      2.00000
      2     -28.0518      2.00000
      3     -28.0518      2.00000
      4     -28.0489      2.00000
      5     -28.0413      2.00000
      6     -20.9533      2.00000
      7      -1.0004      2.00000
      8       0.6856      2.00000
      9       0.6856      2.00000
     10       6.4886      0.00000
     11       7.8371      0.00000
     12      13.9109      0.00000
     13      14.3703      0.00000
     14      14.3703      0.00000
     15      15.2949      0.00000
     16      15.3931      0.00000

 k-point    21 :       0.0000    0.0000    0.1667
  band No.  band energies     occupation 
      1     -28.0426      2.00000
      2     -28.0426      2.00000
      3     -28.0351      2.00000
      4     -28.0351      2.00000
      5     -28.0335      2.00000
      6     -21.0586      2.00000
      7       0.5573      2.00000
      8       1.7537      2.00000
      9       1.7537      2.00000
     10       5.2532      0.00000
     11       9.9715      0.00000
     12      11.2215      0.00000
     13      11.2215      0.00000
     14      12.3282      0.00000
     15      12.5748      0.00000
     16      12.5748      0.00000

 k-point    22 :       0.1667    0.0000    0.1667
  band No.  band energies     occupation 
      1     -28.0531      2.00000
      2     -28.0447      2.00000
      3     -28.0441      2.00000
      4     -28.0441      2.00000
      5     -28.0425      2.00000
      6     -21.0506      2.00000
      7       0.5341      2.00000
      8       1.5213      2.00000
      9       1.5213      2.00000
     10       5.8104      0.00000
     11       9.3125      0.00000
     12      10.7964      0.00000
     13      11.7322      0.00000
     14      11.7322      0.00000
     15      13.6422      0.00000
     16      14.2354      0.00000

 k-point    23 :       0.3333   -0.0000    0.1667
  band No.  band energies     occupation 
      1     -28.0486      2.00000
      2     -28.0484      2.00000
      3     -28.0426      2.00000
      4     -28.0405      2.00000
      5     -28.0335      2.00000
      6     -21.0101      2.00000
      7      -0.4299      2.00000
      8       1.2065      2.00000
      9       1.2743      2.00000
     10       7.0013      0.00000
     11       9.3315      0.00000
     12       9.7827      0.00000
     13      11.8359      0.00000
     14      12.9759      0.00000
     15      13.6195      0.00000
     16      14.2560      0.00000

 k-point    24 :       0.5000   -0.0000    0.1667
  band No.  band energies     occupation 
      1     -28.0526      2.00000
      2     -28.0423      2.00000
      3     -28.0385      2.00000
      4     -28.0375      2.00000
      5     -28.0328      2.00000
      6     -20.9772      2.00000
      7      -1.0063      2.00000
      8       0.8046      2.00000
      9       1.2407      2.00000
     10       7.2916      0.00000
     11       9.2686      0.00000
     12      11.2801      0.00000
     13      11.3135      0.00000
     14      13.1528      0.00000
     15      14.0202      0.00000
     16      14.6734      0.00000

 k-point    25 :      -0.3333   -0.0000    0.1667
  band No.  band energies     occupation 
      1     -28.0555      2.00000
      2     -28.0507      2.00000
      3     -28.0432      2.00000
      4     -28.0403      2.00000
      5     -28.0383      2.00000
      6     -20.9855      2.00000
      7      -0.8606      2.00000
      8       0.6890      2.00000
      9       1.4482      2.00000
     10       7.3540      0.00000
     11       9.4176      0.00000
     12      11.0936      0.00000
     13      11.0955      0.00000
     14      13.0073      0.00000
     15      13.5098      0.00000
     16      14.1764      0.00000

 k-point    26 :      -0.1667    0.0000    0.1667
  band No.  band energies     occupation 
      1     -28.0460      2.00000
      2     -28.0391      2.00000
      3     -28.0382      2.00000
      4     -28.0339      2.00000
      5     -28.0304      2.00000
      6     -21.0263      2.00000
      7      -0.1656      2.00000
      8       1.1078      2.00000
      9       1.7136      2.00000
     10       6.5776      0.00000
     11       9.6960      0.00000
     12      10.3206      0.00000
     13      11.4744      0.00000
     14      11.6400      0.00000
     15      13.6074      0.00000
     16      13.9370      0.00000

 k-point    27 :      -0.0000    0.1667    0.1667
  band No.  band energies     occupation 
      1     -28.0531      2.00000
      2     -28.0447      2.00000
      3     -28.0441      2.00000
      4     -28.0441      2.00000
      5     -28.0425      2.00000
      6     -21.0506      2.00000
      7       0.5341      2.00000
      8       1.5213      2.00000
      9       1.5213      2.00000
     10       5.8104      0.00000
     11       9.3125      0.00000
     12      10.7964      0.00000
     13      11.7322      0.00000
     14      11.7322      0.00000
     15      13.6422      0.00000
     16      14.2355      0.00000

 k-point    28 :       0.1667    0.1667    0.1667
  band No.  band energies     occupation 
      1     -28.0426      2.00000
      2     -28.0426      2.00000
      3     -28.0351      2.00000
      4     -28.0351      2.00000
      5     -28.0335      2.00000
      6     -21.0586      2.00000
      7       0.5573      2.00000
      8       1.7537      2.00000
      9       1.7537      2.00000
     10       5.2532      0.00000
     11       9.9715      0.00000
     12      11.2215      0.00000
     13      11.2215      0.00000
     14      12.3282      0.00000
     15      12.5748      0.00000
     16      12.5748      0.00000

 k-point    29 :       0.3333    0.1667    0.1667
  band No.  band energies     occupation 
      1     -28.0460      2.00000
      2     -28.0391      2.00000
      3     -28.0382      2.00000
      4     -28.0339      2.00000
      5     -28.0304      2.00000
      6     -21.0263      2.00000
      7      -0.1656      2.00000
      8       1.1078      2.00000
      9       1.7136      2.00000
     10       6.5776      0.00000
     11       9.6960      0.00000
     12      10.3206      0.00000
     13      11.4744      0.00000
     14      11.6400      0.00000
     15      13.6074      0.00000
     16      13.9370      0.00000

 k-point    30 :       0.5000    0.1667    0.1667
  band No.  band energies     occupation 
      1     -28.0555      2.00000
      2     -28.0507      2.00000
      3     -28.0432      2.00000
      4     -28.0403      2.00000
      5     -28.0383      2.00000
      6     -20.9855      2.00000
      7      -0.8606      2.00000
      8       0.6890      2.00000
      9       1.4482      2.00000
     10       7.3540      0.00000
     11       9.4176      0.00000
     12      11.0936      0.00000
     13      11.0955      0.00000
     14      13.0073      0.00000
     15      13.5098      0.00000
     16      14.1764      0.00000

 k-point    31 :      -0.3333    0.1667    0.1667
  band No.  band energies     occupation 
      1     -28.0526      2.00000
      2     -28.0423      2.00000
      3     -28.0385      2.00000
      4     -28.0375      2.00000
      5     -28.0328      2.00000
      6     -20.9772      2.00000
      7      -1.0063      2.00000
      8       0.8046      2.00000
      9       1.2407      2.00000
     10       7.2916      0.00000
     11       9.2686      0.00000
     12      11.2801      0.00000
     13      11.3135      0.00000
     14      13.1528      0.00000
     15      14.0202      0.00000
     16      14.6734      0.00000

 k-point    32 :      -0.1667    0.1667    0.1667
  band No.  band energies     occupation 
      1     -28.0486      2.00000
      2     -28.0484      2.00000
      3     -28.0426      2.00000
      4     -28.0405      2.00000
      5     -28.0335      2.00000
      6     -21.0101      2.00000
      7      -0.4299      2.00000
      8       1.2065      2.00000
      9       1.2743      2.00000
     10       7.0013      0.00000
     11       9.3315      0.00000
     12       9.7827      0.00000
     13      11.8359      0.00000
     14      12.9759      0.00000
     15      13.6195      0.00000
     16      14.2560      0.00000

 k-point    33 :      -0.0000    0.3333    0.1667
  band No.  band energies     occupation 
      1     -28.0486      2.00000
      2     -28.0484      2.00000
      3     -28.0426      2.00000
      4     -28.0405      2.00000
      5     -28.0335      2.00000
      6     -21.0101      2.00000
      7      -0.4299      2.00000
      8       1.2065      2.00000
      9       1.2743      2.00000
     10       7.0013      0.00000
     11       9.3315      0.00000
     12       9.7827      0.00000
     13      11.8359      0.00000
     14      12.9759      0.00000
     15      13.6195      0.00000
     16      14.2560      0.00000

 k-point    34 :       0.1667    0.3333    0.1667
  band No.  band energies     occupation 
      1     -28.0460      2.00000
      2     -28.0391      2.00000
      3     -28.0382      2.00000
      4     -28.0339      2.00000
      5     -28.0304      2.00000
      6     -21.0263      2.00000
      7      -0.1656      2.00000
      8       1.1078      2.00000
      9       1.7136      2.00000
     10       6.5776      0.00000
     11       9.6960      0.00000
     12      10.3206      0.00000
     13      11.4744      0.00000
     14      11.6400      0.00000
     15      13.6074      0.00000
     16      13.9370      0.00000

 k-point    35 :       0.3333    0.3333    0.1667
  band No.  band energies     occupation 
      1     -28.0486      2.00000
      2     -28.0484      2.00000
      3     -28.0426      2.00000
      4     -28.0405      2.00000
      5     -28.0335      2.00000
      6     -21.0101      2.00000
      7      -0.4299      2.00000
      8       1.2065      2.00000
      9       1.2743      2.00000
     10       7.0013      0.00000
     11       9.3315      0.00000
     12       9.7827      0.00000
     13      11.8359      0.00000
     14      12.9759      0.00000
     15      13.6195      0.00000
     16      14.2560      0.00000

 k-point    36 :       0.5000    0.3333    0.1667
  band No.  band energies     occupation 
      1     -28.0478      2.00000
      2     -28.0445      2.00000
      3     -28.0398      2.00000
      4     -28.0338      2.00000
      5     -28.0324      2.00000
      6     -20.9775      2.00000
      7      -0.6664      2.00000
      8       0.4346      2.00000
      9       1.0872      2.00000
     10       8.0298      0.00000
     11       9.2528      0.00000
     12       9.3607      0.00000
     13      12.6603      0.00000
     14      13.2686      0.00000
     15      14.3270      0.00000
     16      15.5232      0.00000

 k-point    37 :      -0.3333    0.3333    0.1667
  band No.  band energies     occupation 
      1     -28.0634      2.00000
      2     -28.0590      2.00000
      3     -28.0514      2.00000
      4     -28.0483      2.00000
      5     -28.0429      2.00000
      6     -20.9611      2.00000
      7      -0.6662      2.00000
      8       0.0429      2.00000
      9       0.8867      2.00000
     10       8.6518      0.00000
     11       8.6601      0.00000
     12      11.0508      0.00000
     13      11.5229      0.00000
     14      12.9157      0.00000
     15      14.6092      0.00000
     16      15.4339      0.00000

 k-point    38 :      -0.1667    0.3333    0.1667
[...]
   47.069046    0.828141    0.827752    0.828831   -0.000006   -0.000426    0.000020
   47.603922    0.838979    0.838645    0.839545   -0.000004   -0.000361    0.000019
   48.138797    0.848017    0.847724    0.848497   -0.000002   -0.000314    0.000019
   48.673673    0.855749    0.855489    0.856164   -0.000000   -0.000277    0.000018
   49.208548    0.862492    0.862258    0.862857    0.000001   -0.000248    0.000017
   49.743424    0.868461    0.868248    0.868786    0.000002   -0.000225    0.000017
   50.278300    0.873810    0.873615    0.874102    0.000003   -0.000205    0.000016
   50.813175    0.878649    0.878469    0.878915    0.000004   -0.000189    0.000015
   51.348051    0.883065    0.882898    0.883308    0.000004   -0.000174    0.000015
   51.882926    0.887121    0.886966    0.887345    0.000005   -0.000162    0.000014
   52.417802    0.890869    0.890724    0.891077    0.000005   -0.000151    0.000014
   52.952677    0.894351    0.894214    0.894544    0.000006   -0.000142    0.000013

  frequency dependent IMAGINARY DIELECTRIC FUNCTION (independent particle, no local field effects) current-current (2nd set in vasprun.xml)
     E(ev)      X         Y         Z        XY        YZ        ZX
  --------------------------------------------------------------------------------------------------------------
    0.000000   14.736044   14.736432   14.735956   -0.013447   -0.014083   -0.006858
    0.534876    1.521126    1.521165    1.521117   -0.001343   -0.001409   -0.000686
    1.069751    0.860560    0.860580    0.860556   -0.000669   -0.000705   -0.000343
    1.604627    0.926994    0.927007    0.926991   -0.000444   -0.000471   -0.000228
    2.139502    1.428276    1.428286    1.428274   -0.000330   -0.000355   -0.000171
    2.674378    0.574611    0.574619    0.574610   -0.000262   -0.000285   -0.000136
    3.209253    1.383019    1.383026    1.383018   -0.000215   -0.000238   -0.000113
    3.744129    1.279640    1.279646    1.279639   -0.000182   -0.000206   -0.000097
    4.279004    3.483698    3.483703    3.483697   -0.000156   -0.000181   -0.000084
    4.813880    7.033355    7.033359    7.033354   -0.000135   -0.000162   -0.000075
    5.348755    2.030286    2.030290    2.030285   -0.000119   -0.000147   -0.000067
    5.883631   11.446503   11.446512   11.446508   -0.000108   -0.000136   -0.000063
    6.418506    4.292828    4.292832    4.292828   -0.000092   -0.000126   -0.000055
    6.953382    3.413227    3.413231    3.413226   -0.000081   -0.000117   -0.000050
    7.488257    3.190852    3.190856    3.190852   -0.000071   -0.000111   -0.000046
    8.023133    5.860921    5.860926    5.860922   -0.000062   -0.000105   -0.000043
    8.558008    6.848295    6.848299    6.848295   -0.000054   -0.000100   -0.000039
    9.092884    3.832254    3.832258    3.832254   -0.000046   -0.000096   -0.000036
    9.627759    3.298368    3.298374    3.298370   -0.000039   -0.000094   -0.000035
   10.162635    2.918247    2.918252    2.918246   -0.000031   -0.000092   -0.000031
   10.697511    2.344121    2.344128    2.344120   -0.000025   -0.000092   -0.000029
   11.232386    1.062792    1.062801    1.062787   -0.000019   -0.000096   -0.000027
   11.767262    1.813788    1.813806    1.813776   -0.000017   -0.000115   -0.000025
   12.302137    2.092957    2.093024    2.092901   -0.000030   -0.000223   -0.000028
   12.837013    1.326172    1.326690    1.325735   -0.000276    0.000502   -0.000248
   13.371888    0.486833    0.486873    0.486488   -0.000397    0.000942   -0.000211
   13.906764    0.555717    0.555752    0.555099    0.000058   -0.000213   -0.000230
   14.441639    0.178387    0.178462    0.178458    0.000198   -0.000322   -0.000082
   14.976515    0.266022    0.266188    0.267169    0.000142   -0.000253   -0.000237
   15.511390    0.072784    0.073025    0.074931    0.000107   -0.000453   -0.000689
   16.046266    0.071573    0.071595    0.071685    0.000696   -0.000417   -0.000004
   16.581141    0.054764    0.054857    0.053206    0.000112    0.000243   -0.001038
   17.116017    0.116894    0.116921    0.116846   -0.002220    0.000566   -0.000317
   17.650892    0.010592    0.010596    0.010584   -0.000858    0.000205   -0.000153
   18.185768    0.005868    0.005871    0.005867   -0.000544    0.000106   -0.000105
   18.720643    0.004260    0.004262    0.004260   -0.000407    0.000062   -0.000083
   19.255519    0.003377    0.003378    0.003377   -0.000331    0.000038   -0.000071
   19.790394    0.002803    0.002805    0.002803   -0.000283    0.000023   -0.000062
   20.325270    0.002401    0.002403    0.002401   -0.000249    0.000012   -0.000057
   20.860146    0.002109    0.002110    0.002108   -0.000225    0.000005   -0.000053
   21.395021    0.001892    0.001893    0.001891   -0.000206   -0.000000   -0.000050
   21.929897    0.001732    0.001734    0.001732   -0.000192   -0.000004   -0.000047
   22.464772    0.001618    0.001620    0.001617   -0.000180   -0.000008   -0.000045
   22.999648    0.001544    0.001545    0.001543   -0.000171   -0.000010   -0.000044
   23.534523    0.001509    0.001510    0.001508   -0.000163   -0.000013   -0.000042
   24.069399    0.001518    0.001519    0.001517   -0.000157   -0.000014   -0.000041
   24.604274    0.001591    0.001592    0.001590   -0.000151   -0.000016   -0.000040
   25.139150    0.001793    0.001794    0.001791   -0.000147   -0.000018   -0.000040
   25.674025    0.002456    0.002457    0.002455   -0.000143   -0.000019   -0.000039
   26.208901    0.014112    0.014113    0.014110   -0.000140   -0.000020   -0.000039
   26.743776    0.015675    0.015677    0.015674   -0.000138   -0.000021   -0.000038
   27.278652    0.012856    0.012857    0.012854   -0.000135   -0.000022   -0.000038
   27.813527    0.024420    0.024421    0.024418   -0.000134   -0.000023   -0.000038
   28.348403    0.056194    0.056196    0.056192   -0.000133   -0.000024   -0.000038
   28.883278    0.024960    0.024962    0.024958   -0.000132   -0.000025   -0.000038
   29.418154    0.019257    0.019258    0.019255   -0.000131   -0.000026   -0.000038
   29.953029    0.023529    0.023530    0.023527   -0.000131   -0.000027   -0.000038
   30.487905    0.033464    0.033465    0.033461   -0.000131   -0.000028   -0.000039
   31.022781    0.045890    0.045892    0.045888   -0.000132   -0.000029   -0.000039
   31.557656    0.015467    0.015469    0.015465   -0.000133   -0.000030   -0.000040
   32.092532    0.120928    0.120930    0.120925   -0.000135   -0.000031   -0.000040
   32.627407    0.035142    0.035144    0.035138   -0.000137   -0.000031   -0.000041
   33.162283    0.026898    0.026901    0.026894   -0.000141   -0.000031   -0.000041
   33.697158    0.042366    0.042369    0.042359   -0.000145   -0.000029   -0.000040
   34.232034    0.070414    0.070418    0.070391   -0.000155   -0.000017   -0.000037
   34.766909    0.044871    0.044883    0.044791   -0.000137   -0.000074   -0.000120
   35.301785    0.086342    0.086349    0.086171   -0.000242    0.000081   -0.000126
   35.836660    0.036143    0.036146    0.036130   -0.000156   -0.000073   -0.000066
   36.371536    0.021236    0.021240    0.021224   -0.000173   -0.000069   -0.000069
   36.906411    0.033918    0.033924    0.033886   -0.000218   -0.000053   -0.000086
   37.441287    0.125175    0.125105    0.124959    0.000066   -0.000138   -0.000326
   37.976162    0.045268    0.045272    0.045251   -0.000103   -0.000120   -0.000088
   38.511038    0.027314    0.027322    0.027305   -0.000132   -0.000132   -0.000090
   39.045913    0.171424    0.171434    0.171416   -0.000146   -0.000155   -0.000102
   39.580789    0.201290    0.201304    0.201281   -0.000153   -0.000191   -0.000122
   40.115664    0.053335    0.053354    0.053323   -0.000152   -0.000253   -0.000156
   40.650540    0.116714    0.116743    0.116698   -0.000130   -0.000378   -0.000231
   41.185416    0.293922    0.293978    0.293873   -0.000001   -0.000749   -0.000514
   41.720291    0.241100    0.241250    0.240914   -0.000415    0.000328    0.000587
   42.255167    0.398570    0.401632    0.398190   -0.001060    0.002464   -0.000277
   42.790042    0.315768    0.316110    0.315893   -0.001191    0.001572    0.000005
   43.324918    0.132147    0.132328    0.132011   -0.001357    0.001118   -0.000090
   43.859793    0.055120    0.055840    0.054655   -0.002249    0.001832   -0.000315
   44.394669    0.138965    0.139122    0.114860    0.001377    0.004207   -0.000048
   44.929544    0.011294    0.011384    0.010541    0.001974   -0.000299    0.000265
   45.464420    0.004915    0.004960    0.004738    0.000965   -0.000121    0.000141
   45.999295    0.002978    0.003002    0.002903    0.000620   -0.000058    0.000100
   46.534171    0.002049    0.002064    0.002008    0.000450   -0.000029    0.000078
   47.069046    0.001510    0.001520    0.001485    0.000349   -0.000014    0.000064
   47.603922    0.001164    0.001171    0.001147    0.000282   -0.000005    0.000054
   48.138797    0.000925    0.000931    0.000913    0.000235    0.000000    0.000047
   48.673673    0.000753    0.000757    0.000744    0.000201    0.000003    0.000041
   49.208548    0.000624    0.000628    0.000617    0.000174    0.000005    0.000037
   49.743424    0.000525    0.000528    0.000520    0.000153    0.000006    0.000033
   50.278300    0.000448    0.000450    0.000443    0.000136    0.000007    0.000030
   50.813175    0.000385    0.000387    0.000382    0.000122    0.000008    0.000027
   51.348051    0.000335    0.000336    0.000332    0.000110    0.000008    0.000025
   51.882926    0.000293    0.000294    0.000291    0.000100    0.000008    0.000023
   52.417802    0.000258    0.000260    0.000256    0.000092    0.000008    0.000021
   52.952677    0.000229    0.000230    0.000227    0.000084    0.000008    0.000020

  frequency dependent      REAL DIELECTRIC FUNCTION (independent particle, no local field effects) current-current (2nd set in vasprun.xml)
     E(ev)        X           Y           Z          XY          YZ          ZX
  --------------------------------------------------------------------------------------------------------------
    0.000000    4.931949    4.932053    4.931926   -0.000179    0.000122   -0.000086
    0.534876    4.993059    4.993162    4.993035   -0.000179    0.000122   -0.000086
    1.069751    5.219368    5.219472    5.219345   -0.000180    0.000122   -0.000086
    1.604627    5.922931    5.923035    5.922908   -0.000181    0.000123   -0.000086
    2.139502    3.367042    3.367147    3.367019   -0.000182    0.000123   -0.000087
    2.674378    5.298848    5.298953    5.298825   -0.000184    0.000124   -0.000088
    3.209253    7.369663    7.369769    7.369641   -0.000187    0.000125   -0.000090
    3.744129    3.896068    3.896175    3.896047   -0.000190    0.000127   -0.000091
    4.279004    6.547308    6.547417    6.547288   -0.000194    0.000128   -0.000093
    4.813880    4.287904    4.288014    4.287884   -0.000198    0.000130   -0.000095
    5.348755    6.738668    6.738779    6.738649   -0.000203    0.000132   -0.000098
    5.883631    4.414980    4.415095    4.414963   -0.000210    0.000134   -0.000101
    6.418506    0.412807    0.412923    0.412790   -0.000216    0.000137   -0.000104
    6.953382    1.468509    1.468627    1.468493   -0.000225    0.000141   -0.000109
    7.488257    4.089431    4.089553    4.089417   -0.000234    0.000145   -0.000114
    8.023133    1.943691    1.943817    1.943678   -0.000246    0.000150   -0.000120
    8.558008   -0.824983   -0.824852   -0.824995   -0.000259    0.000156   -0.000127
    9.092884   -0.579402   -0.579265   -0.579413   -0.000275    0.000163   -0.000136
    9.627759   -1.604007   -1.603861   -1.604017   -0.000296    0.000172   -0.000147
   10.162635   -0.815118   -0.814962   -0.815130   -0.000320    0.000183   -0.000161
   10.697511   -2.986273   -2.986102   -2.986290   -0.000352    0.000198   -0.000180
   11.232386   -1.402051   -1.401854   -1.402081   -0.000396    0.000218   -0.000206
   11.767262   -0.611426   -0.611182   -0.611491   -0.000460    0.000247   -0.000247
   12.302137   -1.708827   -1.708441   -1.709018   -0.000582    0.000302   -0.000333
   12.837013   -1.229193   -1.229600   -1.228836   -0.000500    0.001269   -0.000263
   13.371888   -0.969398   -0.969377   -0.969883   -0.000964    0.001046   -0.000582
   13.906764   -0.734136   -0.734066   -0.731821    0.000520   -0.001577    0.000288
   14.441639   -0.490084   -0.489899   -0.488252   -0.000348   -0.000321   -0.000263
   14.976515   -0.329802   -0.329322   -0.326073   -0.000991   -0.000130   -0.000869
   15.511390   -0.233803   -0.234348   -0.238754    0.000017    0.000253    0.001466
   16.046266   -0.033763   -0.033935   -0.035769   -0.001228    0.000324    0.000359
   16.581141   -0.002058   -0.002232   -0.004519   -0.006973    0.001667   -0.000235
   17.116017    0.070755    0.070712    0.070629    0.002265   -0.000049    0.000154
   17.650892    0.170760    0.170758    0.170521    0.001124   -0.000073    0.000196
   18.185768    0.258093    0.258107    0.257849    0.000749   -0.000042    0.000163
   18.720643    0.325597    0.325621    0.325364    0.000562   -0.000020    0.000136
   19.255519    0.382176    0.382209    0.381956    0.000450   -0.000004    0.000115
   19.790394    0.431088    0.431127    0.430878    0.000374    0.000009    0.000100
   20.325270    0.474121    0.474166    0.473921    0.000320    0.000019    0.000087
   20.860146    0.512449    0.512500    0.512257    0.000279    0.000027    0.000077
   21.395021    0.546921    0.546975    0.546735    0.000247    0.000034    0.000068
   21.929897    0.578184    0.578243    0.578003    0.000221    0.000040    0.000061
   22.464772    0.606758    0.606820    0.606581    0.000200    0.000046    0.000055
   22.999648    0.633078    0.633144    0.632904    0.000183    0.000051    0.000049
   23.534523    0.657527    0.657596    0.657355    0.000168    0.000056    0.000045
   24.069399    0.680470    0.680543    0.680300    0.000155    0.000060    0.000040
   24.604274    0.702307    0.702383    0.702138    0.000144    0.000064    0.000037
   25.139150    0.723603    0.723683    0.723435    0.000135    0.000068    0.000033
   25.674025    0.745665    0.745748    0.745497    0.000126    0.000072    0.000030
   26.208901    0.775636    0.775722    0.775467    0.000119    0.000076    0.000027
   26.743776    0.788217    0.788307    0.788047    0.000112    0.000080    0.000025
   27.278652    0.798102    0.798195    0.797930    0.000106    0.000085    0.000022
   27.813527    0.822302    0.822399    0.822129    0.000101    0.000089    0.000020
   28.348403    0.786471    0.786571    0.786295    0.000096    0.000093    0.000018
   28.883278    0.828498    0.828603    0.828320    0.000092    0.000097    0.000015
   29.418154    0.851049    0.851157    0.850866    0.000088    0.000102    0.000013
   29.953029    0.849766    0.849879    0.849580    0.000084    0.000107    0.000011
   30.487905    0.812855    0.812973    0.812664    0.000081    0.000112    0.000009
   31.022781    0.849278    0.849401    0.849081    0.000078    0.000118    0.000006
   31.557656    0.888983    0.889111    0.888780    0.000075    0.000124    0.000003
   32.092532    0.875548    0.875682    0.875337    0.000073    0.000130    0.000000
   32.627407    0.830911    0.831053    0.830690    0.000071    0.000138   -0.000003
   33.162283    0.875769    0.875918    0.875534    0.000069    0.000146   -0.000008
   33.697158    0.901206    0.901365    0.900951    0.000067    0.000154   -0.000017
   34.232034    0.888816    0.888988    0.888510    0.000067    0.000160   -0.000041
   34.766909    0.933447    0.933607    0.933295    0.000056    0.000177    0.000008
   35.301785    0.883666    0.883846    0.883450    0.000105    0.000097    0.000005
   35.836660    0.882050    0.882243    0.881828    0.000086    0.000166   -0.000004
   36.371536    0.917732    0.917940    0.917458    0.000080    0.000198   -0.000027
   36.906411    0.923323    0.923549    0.922967    0.000091    0.000228   -0.000080
   37.441287    0.880085    0.880380    0.880068    0.000195    0.000172    0.000261
   37.976162    0.929688    0.929977    0.929477    0.000068    0.000244    0.000075
   38.511038    0.971408    0.971723    0.971141    0.000067    0.000281    0.000039
   39.045913    1.051978    1.052331    1.051670    0.000068    0.000321    0.000022
   39.580789    0.872347    0.872752    0.872000    0.000070    0.000373    0.000010
   40.115664    0.939413    0.939891    0.939020    0.000073    0.000446   -0.000003
   40.650540    1.042517    1.043107    1.042064    0.000076    0.000564   -0.000020
   41.185416    0.989151    0.989936    0.988577    0.000062    0.000851   -0.000021
   41.720291    0.856556    0.857764    0.856387   -0.000425    0.001833    0.000782
   42.255167    0.881733    0.887667    0.887024    0.000187    0.005484    0.001302
   42.790042    0.615593    0.614872    0.613621    0.000008    0.000038   -0.000035
   43.324918    0.745876    0.746230    0.743782    0.000228    0.000649    0.000009
   43.859793    0.692505    0.694450    0.689175    0.000706    0.001944    0.000009
   44.394669    0.648964    0.641919    0.645327    0.009762   -0.008130    0.002206
   44.929544    0.727339    0.726195    0.731118    0.000227   -0.001660   -0.000026
   45.464420    0.771651    0.770879    0.773487    0.000016   -0.000943    0.000014
   45.999295    0.796945    0.796364    0.798137   -0.000007   -0.000668    0.000019
   46.534171    0.814584    0.814118    0.815460   -0.000009   -0.000520    0.000020
   47.069046    0.828050    0.827661    0.828739   -0.000007   -0.000426    0.000020
   47.603922    0.838891    0.838556    0.839457   -0.000005   -0.000362    0.000020
   48.138797    0.847932    0.847638    0.848411   -0.000003   -0.000314    0.000019
   48.673673    0.855666    0.855405    0.856080   -0.000001   -0.000277    0.000018
   49.208548    0.862411    0.862176    0.862775    0.000000   -0.000248    0.000017
   49.743424    0.868382    0.868169    0.868707    0.000002   -0.000225    0.000017
   50.278300    0.873732    0.873537    0.874025    0.000003   -0.000205    0.000016
   50.813175    0.878573    0.878393    0.878839    0.000003   -0.000189    0.000015
   51.348051    0.882990    0.882824    0.883234    0.000004   -0.000175    0.000015
   51.882926    0.887048    0.886893    0.887272    0.000005   -0.000162    0.000014
   52.417802    0.890798    0.890653    0.891005    0.000005   -0.000152    0.000014
   52.952677    0.894281    0.894145    0.894474    0.000006   -0.000142    0.000013
 
 The outermost node in the dielectric function lies at epsilon=  16.6


--------------------------------------------------------------------------------------------------------


    OPTICS:  cpu time    0.1752: real time    0.1760
    4ORBIT:  cpu time    0.0000: real time    0.0000

 total amount of memory used by VASP MPI-rank0    34770. kBytes
=======================================================================

   base      :      30000. kBytes
   nonl-proj :       1485. kBytes
   fftplans  :       1866. kBytes
   grid      :        602. kBytes
   one-center:         15. kBytes
   wavefun   :        802. kBytes
 
  
  
 General timing and accounting informations for this job:
 ========================================================
  
                  Total CPU time used (sec):        5.507
                            User time (sec):        4.853
                          System time (sec):        0.654
                         Elapsed time (sec):        6.107
  
                   Maximum memory used (kb):      125580.
                   Average memory used (kb):           0.
  
                          Minor page faults:        73688
                          Major page faults:            0
                 Voluntary context switches:         1588
