   1   1   0   0
  0.4928368E+02  0.4115343E-09  0.4115343E-09  0.4115343E-09  0.1000000E-15
  1.000000000000000E-004
  CAR 
 Og_FCC                                  
     69.63537023    -26.67487708  301     -7.25231054      1.00000000
    -26.675  0.0000E+00  0.0000E+00
    -26.354  0.0000E+00  0.0000E+00
    -26.033  0.0000E+00  0.0000E+00
    -25.712  0.0000E+00  0.0000E+00
    -25.391  0.0000E+00  0.0000E+00
    -25.070  0.0000E+00  0.0000E+00
    -24.749  0.0000E+00  0.0000E+00
    -24.428  0.0000E+00  0.0000E+00
    -24.107  0.0000E+00  0.0000E+00
    -23.786  0.0000E+00  0.0000E+00
    -23.465  0.0000E+00  0.0000E+00
    -23.144  0.0000E+00  0.0000E+00
    -22.822  0.0000E+00  0.0000E+00
    -22.501  0.0000E+00  0.0000E+00
    -22.180  0.2146E+00  0.3189E+00
    -21.859  0.0000E+00  0.2000E+01
    -21.538  0.0000E+00  0.2000E+01
    -21.217  0.0000E+00  0.2000E+01
    -20.896  0.0000E+00  0.2000E+01
    -20.575  0.0000E+00  0.2000E+01
    -20.254  0.0000E+00  0.2000E+01
    -19.933  0.0000E+00  0.2000E+01
    -19.612  0.0000E+00  0.2000E+01
    -19.291  0.0000E+00  0.2000E+01
    -18.970  0.0000E+00  0.2000E+01
    -18.649  0.0000E+00  0.2000E+01
    -18.328  0.0000E+00  0.2000E+01
    -18.007  0.0000E+00  0.2000E+01
    -17.686  0.0000E+00  0.2000E+01
    -17.365  0.0000E+00  0.2000E+01
    -17.044  0.0000E+00  0.2000E+01
    -16.723  0.0000E+00  0.2000E+01
    -16.402  0.0000E+00  0.2000E+01
    -16.081  0.0000E+00  0.2000E+01
    -15.760  0.0000E+00  0.2000E+01
    -15.439  0.0000E+00  0.2000E+01
    -15.118  0.0000E+00  0.2000E+01
    -14.797  0.0000E+00  0.2000E+01
    -14.476  0.0000E+00  0.2000E+01
    -14.155  0.0000E+00  0.2000E+01
    -13.834  0.0000E+00  0.2000E+01
    -13.512  0.0000E+00  0.2000E+01
    -13.191  0.0000E+00  0.2000E+01
    -12.870  0.0000E+00  0.2000E+01
    -12.549  0.0000E+00  0.2000E+01
    -12.228  0.0000E+00  0.2000E+01
    -11.907  0.0000E+00  0.2000E+01
    -11.586  0.0000E+00  0.2000E+01
    -11.265  0.0000E+00  0.2000E+01
    -10.944  0.0000E+00  0.2000E+01
    -10.623  0.0000E+00  0.2000E+01
    -10.302  0.0000E+00  0.2000E+01
     -9.981  0.0000E+00  0.2000E+01
     -9.660  0.0000E+00  0.2000E+01
     -9.339  0.0000E+00  0.2000E+01
     -9.018  0.3461E+00  0.2843E+01
     -8.697  0.0000E+00  0.3750E+01
     -8.376  0.3461E+00  0.4306E+01
     -8.055  0.3461E+00  0.5528E+01
     -7.734  0.0000E+00  0.7056E+01
     -7.413  0.0000E+00  0.7981E+01
     -7.092  0.0000E+00  0.8000E+01
     -6.771  0.0000E+00  0.8000E+01
     -6.450  0.0000E+00  0.8000E+01
     -6.129  0.0000E+00  0.8000E+01
     -5.808  0.0000E+00  0.8000E+01
     -5.487  0.0000E+00  0.8000E+01
     -5.166  0.0000E+00  0.8000E+01
     -4.845  0.0000E+00  0.8000E+01
     -4.524  0.0000E+00  0.8000E+01
     -4.202  0.0000E+00  0.8000E+01
     -3.881  0.0000E+00  0.8000E+01
     -3.560  0.0000E+00  0.8000E+01
     -3.239  0.0000E+00  0.8000E+01
     -2.918  0.0000E+00  0.8000E+01
     -2.597  0.0000E+00  0.8000E+01
     -2.276  0.0000E+00  0.8000E+01
     -1.955  0.0000E+00  0.8000E+01
     -1.634  0.0000E+00  0.8000E+01
     -1.313  0.0000E+00  0.8000E+01
     -0.992  0.0000E+00  0.8000E+01
     -0.671  0.0000E+00  0.8000E+01
     -0.350  0.0000E+00  0.8000E+01
     -0.029  0.0000E+00  0.8000E+01
      0.292  0.0000E+00  0.8000E+01
      0.613  0.0000E+00  0.8000E+01
      0.934  0.0000E+00  0.8000E+01
      1.255  0.0000E+00  0.8000E+01
      1.576  0.0000E+00  0.8000E+01
      1.897  0.0000E+00  0.8000E+01
      2.218  0.0000E+00  0.8000E+01
      2.539  0.0000E+00  0.8000E+01
      2.860  0.0000E+00  0.8000E+01
      3.181  0.0000E+00  0.8000E+01
      3.502  0.0000E+00  0.8000E+01
      3.823  0.0000E+00  0.8000E+01
      4.144  0.0000E+00  0.8000E+01
      4.465  0.0000E+00  0.8009E+01
      4.786  0.0000E+00  0.8009E+01
      5.108  0.0000E+00  0.8083E+01
      5.429  0.0000E+00  0.8139E+01
      5.750  0.0000E+00  0.8139E+01
      6.071  0.0000E+00  0.8139E+01
      6.392  0.0000E+00  0.8250E+01
      6.713  0.0000E+00  0.8574E+01
      7.034  0.0000E+00  0.8667E+01
      7.355  0.0000E+00  0.8889E+01
      7.676  0.0000E+00  0.9667E+01
      7.997  0.0000E+00  0.9667E+01
      8.318  0.0000E+00  0.1003E+02
      8.639  0.6557E+00  0.1024E+02
      8.960  0.0000E+00  0.1097E+02
      9.281  0.0000E+00  0.1142E+02
      9.602  0.0000E+00  0.1197E+02
      9.923  0.0000E+00  0.1236E+02
     10.244  0.0000E+00  0.1286E+02
     10.565  0.0000E+00  0.1377E+02
     10.886  0.0000E+00  0.1388E+02
     11.207  0.0000E+00  0.1420E+02
     11.528  0.0000E+00  0.1481E+02
     11.849  0.1731E+00  0.1581E+02
     12.170  0.0000E+00  0.1706E+02
     12.491  0.0000E+00  0.1795E+02
     12.812  0.0000E+00  0.1829E+02
     13.133  0.0000E+00  0.1838E+02
     13.454  0.0000E+00  0.1877E+02
     13.775  0.0000E+00  0.1939E+02
     14.096  0.0000E+00  0.2039E+02
     14.417  0.0000E+00  0.2111E+02
     14.739  0.0000E+00  0.2236E+02
     15.060  0.0000E+00  0.2253E+02
     15.381  0.0000E+00  0.2258E+02
     15.702  0.0000E+00  0.2297E+02
     16.023  0.0000E+00  0.2297E+02
     16.344  0.0000E+00  0.2388E+02
     16.665  0.0000E+00  0.2438E+02
     16.986  0.6922E+00  0.2510E+02
     17.307  0.0000E+00  0.2544E+02
     17.628  0.0000E+00  0.2644E+02
     17.949  0.0000E+00  0.2706E+02
     18.270  0.0000E+00  0.2750E+02
     18.591  0.0000E+00  0.2794E+02
     18.912  0.0000E+00  0.2856E+02
     19.233  0.0000E+00  0.2878E+02
     19.554  0.0000E+00  0.2932E+02
     19.875  0.0000E+00  0.2935E+02
     20.196  0.0000E+00  0.2972E+02
     20.517  0.0000E+00  0.3017E+02
     20.838  0.0000E+00  0.3067E+02
     21.159  0.0000E+00  0.3100E+02
     21.480  0.1731E+00  0.3191E+02
     21.801  0.0000E+00  0.3246E+02
     22.122  0.0000E+00  0.3296E+02
     22.443  0.0000E+00  0.3369E+02
     22.764  0.0000E+00  0.3443E+02
     23.085  0.6922E+00  0.3498E+02
     23.406  0.0000E+00  0.3585E+02
     23.727  0.0000E+00  0.3593E+02
     24.049  0.8613E-05  0.3656E+02
     24.370  0.0000E+00  0.3746E+02
     24.691  0.0000E+00  0.3828E+02
     25.012  0.0000E+00  0.3869E+02
     25.333  0.0000E+00  0.3902E+02
     25.654  0.0000E+00  0.3930E+02
     25.975  0.0000E+00  0.3985E+02
     26.296  0.4615E+00  0.4038E+02
     26.617  0.0000E+00  0.4106E+02
     26.938  0.6922E+00  0.4195E+02
     27.259  0.2505E-04  0.4256E+02
     27.580  0.0000E+00  0.4336E+02
     27.901  0.0000E+00  0.4375E+02
     28.222  0.0000E+00  0.4505E+02
     28.543  0.0000E+00  0.4586E+02
     28.864  0.0000E+00  0.4619E+02
     29.185  0.0000E+00  0.4637E+02
     29.506  0.0000E+00  0.4706E+02
     29.827  0.0000E+00  0.4706E+02
     30.148  0.0000E+00  0.4808E+02
     30.469  0.0000E+00  0.4827E+02
     30.790  0.0000E+00  0.4908E+02
     31.111  0.3461E+00  0.4990E+02
     31.432  0.1137E+00  0.5128E+02
     31.753  0.0000E+00  0.5151E+02
     32.074  0.0000E+00  0.5195E+02
     32.395  0.6785E+00  0.5317E+02
     32.716  0.0000E+00  0.5345E+02
     33.037  0.0000E+00  0.5445E+02
     33.359  0.2133E-02  0.5507E+02
     33.680  0.3461E+00  0.5562E+02
     34.001  0.0000E+00  0.5595E+02
     34.322  0.0000E+00  0.5634E+02
     34.643  0.0000E+00  0.5681E+02
     34.964  0.0000E+00  0.5747E+02
     35.285  0.0000E+00  0.5825E+02
     35.606  0.0000E+00  0.5947E+02
     35.927  0.0000E+00  0.6025E+02
     36.248  0.0000E+00  0.6086E+02
     36.569  0.0000E+00  0.6186E+02
     36.890  0.0000E+00  0.6292E+02
     37.211  0.0000E+00  0.6380E+02
     37.532  0.0000E+00  0.6439E+02
     37.853  0.0000E+00  0.6473E+02
     38.174  0.0000E+00  0.6520E+02
     38.495  0.0000E+00  0.6594E+02
     38.816  0.0000E+00  0.6643E+02
     39.137  0.0000E+00  0.6724E+02
     39.458  0.0000E+00  0.6746E+02
     39.779  0.0000E+00  0.6816E+02
     40.100  0.0000E+00  0.6927E+02
     40.421  0.0000E+00  0.6971E+02
     40.742  0.0000E+00  0.7028E+02
     41.063  0.0000E+00  0.7093E+02
     41.384  0.0000E+00  0.7269E+02
     41.705  0.0000E+00  0.7330E+02
     42.026  0.0000E+00  0.7399E+02
     42.347  0.0000E+00  0.7467E+02
     42.669  0.0000E+00  0.7578E+02
     42.990  0.0000E+00  0.7678E+02
     43.311  0.0000E+00  0.7711E+02
     43.632  0.0000E+00  0.7799E+02
     43.953  0.2307E+00  0.7881E+02
     44.274  0.1384E+01  0.7940E+02
     44.595  0.0000E+00  0.8001E+02
     44.916  0.0000E+00  0.8048E+02
     45.237  0.1038E+01  0.8151E+02
     45.558  0.6922E+00  0.8195E+02
     45.879  0.8100E-05  0.8265E+02
     46.200  0.0000E+00  0.8272E+02
     46.521  0.0000E+00  0.8365E+02
     46.842  0.1716E+00  0.8439E+02
     47.163  0.1726E-01  0.8565E+02
     47.484  0.6123E-09  0.8697E+02
     47.805  0.3709E-08  0.8793E+02
     48.126  0.6890E+00  0.8919E+02
     48.447  0.0000E+00  0.8931E+02
     48.768  0.0000E+00  0.9008E+02
     49.089  0.0000E+00  0.9138E+02
     49.410  0.6922E+00  0.9216E+02
     49.731  0.0000E+00  0.9268E+02
     50.052  0.4610E+00  0.9313E+02
     50.373  0.4441E+00  0.9411E+02
     50.694  0.0000E+00  0.9533E+02
     51.015  0.2884E-01  0.9581E+02
     51.336  0.0000E+00  0.9669E+02
     51.657  0.0000E+00  0.9749E+02
     51.978  0.0000E+00  0.9806E+02
     52.300  0.0000E+00  0.9908E+02
     52.621  0.3461E+00  0.9964E+02
     52.942  0.0000E+00  0.1002E+03
     53.263  0.0000E+00  0.1010E+03
     53.584  0.0000E+00  0.1016E+03
     53.905  0.0000E+00  0.1022E+03
     54.226  0.0000E+00  0.1032E+03
     54.547  0.0000E+00  0.1045E+03
     54.868  0.0000E+00  0.1054E+03
     55.189  0.0000E+00  0.1066E+03
     55.510  0.0000E+00  0.1072E+03
     55.831  0.0000E+00  0.1085E+03
     56.152  0.0000E+00  0.1091E+03
     56.473  0.0000E+00  0.1101E+03
     56.794  0.0000E+00  0.1106E+03
     57.115  0.0000E+00  0.1118E+03
     57.436  0.0000E+00  0.1123E+03
     57.757  0.6808E+00  0.1132E+03
     58.078  0.3461E+00  0.1141E+03
     58.399  0.0000E+00  0.1145E+03
     58.720  0.0000E+00  0.1159E+03
     59.041  0.0000E+00  0.1169E+03
     59.362  0.0000E+00  0.1177E+03
     59.683  0.1731E+00  0.1182E+03
     60.004  0.1154E+00  0.1191E+03
     60.325  0.4734E-03  0.1203E+03
     60.646  0.0000E+00  0.1209E+03
     60.967  0.0000E+00  0.1213E+03
     61.288  0.0000E+00  0.1220E+03
     61.610  0.0000E+00  0.1231E+03
     61.931  0.1731E+00  0.1245E+03
     62.252  0.0000E+00  0.1249E+03
     62.573  0.0000E+00  0.1264E+03
     62.894  0.0000E+00  0.1271E+03
     63.215  0.0000E+00  0.1275E+03
     63.536  0.0000E+00  0.1276E+03
     63.857  0.0000E+00  0.1278E+03
     64.178  0.0000E+00  0.1279E+03
     64.499  0.0000E+00  0.1279E+03
     64.820  0.0000E+00  0.1279E+03
     65.141  0.0000E+00  0.1279E+03
     65.462  0.0000E+00  0.1280E+03
     65.783  0.0000E+00  0.1280E+03
     66.104  0.0000E+00  0.1280E+03
     66.425  0.0000E+00  0.1280E+03
     66.746  0.0000E+00  0.1280E+03
     67.067  0.0000E+00  0.1280E+03
     67.388  0.0000E+00  0.1280E+03
     67.709  0.0000E+00  0.1280E+03
     68.030  0.0000E+00  0.1280E+03
     68.351  0.0000E+00  0.1280E+03
     68.672  0.0000E+00  0.1280E+03
     68.993  0.0000E+00  0.1280E+03
     69.314  0.0000E+00  0.1280E+03
     69.635  0.0000E+00  0.1280E+03
