   1   1   0   0
  0.6083477E+02  0.4414576E-09  0.4414576E-09  0.4414576E-09  0.1000000E-15
  1.000000000000000E-004
  CAR 
 Og_FCC                                  
     15.55708430    -47.46149355  301     -1.19535431      1.00000000
    -47.461  0.0000E+00  0.0000E+00
    -47.251  0.0000E+00  0.0000E+00
    -47.041  0.0000E+00  0.0000E+00
    -46.831  0.0000E+00  0.0000E+00
    -46.621  0.0000E+00  0.0000E+00
    -46.411  0.0000E+00  0.0000E+00
    -46.201  0.0000E+00  0.0000E+00
    -45.991  0.0000E+00  0.0000E+00
    -45.781  0.0000E+00  0.0000E+00
    -45.571  0.0000E+00  0.0000E+00
    -45.361  0.0000E+00  0.0000E+00
    -45.151  0.0000E+00  0.0000E+00
    -44.941  0.0000E+00  0.0000E+00
    -44.731  0.0000E+00  0.0000E+00
    -44.521  0.0000E+00  0.4000E+01
    -44.311  0.0000E+00  0.4000E+01
    -44.101  0.0000E+00  0.4000E+01
    -43.890  0.0000E+00  0.4000E+01
    -43.680  0.0000E+00  0.4000E+01
    -43.470  0.0000E+00  0.4000E+01
    -43.260  0.0000E+00  0.4000E+01
    -43.050  0.0000E+00  0.4000E+01
    -42.840  0.0000E+00  0.4000E+01
    -42.630  0.0000E+00  0.4000E+01
    -42.420  0.0000E+00  0.4000E+01
    -42.210  0.0000E+00  0.4000E+01
    -42.000  0.0000E+00  0.4000E+01
    -41.790  0.0000E+00  0.4000E+01
    -41.580  0.0000E+00  0.4000E+01
    -41.370  0.0000E+00  0.4000E+01
    -41.160  0.0000E+00  0.4000E+01
    -40.950  0.0000E+00  0.4000E+01
    -40.740  0.0000E+00  0.4000E+01
    -40.529  0.0000E+00  0.4000E+01
    -40.319  0.0000E+00  0.4000E+01
    -40.109  0.0000E+00  0.1000E+02
    -39.899  0.0000E+00  0.1000E+02
    -39.689  0.0000E+00  0.1000E+02
    -39.479  0.0000E+00  0.1000E+02
    -39.269  0.0000E+00  0.1000E+02
    -39.059  0.0000E+00  0.1000E+02
    -38.849  0.0000E+00  0.1000E+02
    -38.639  0.0000E+00  0.1000E+02
    -38.429  0.0000E+00  0.1000E+02
    -38.219  0.0000E+00  0.1000E+02
    -38.009  0.0000E+00  0.1000E+02
    -37.799  0.0000E+00  0.1000E+02
    -37.589  0.0000E+00  0.1000E+02
    -37.379  0.0000E+00  0.1000E+02
    -37.168  0.0000E+00  0.1000E+02
    -36.958  0.0000E+00  0.1000E+02
    -36.748  0.0000E+00  0.1000E+02
    -36.538  0.0000E+00  0.1000E+02
    -36.328  0.0000E+00  0.1000E+02
    -36.118  0.0000E+00  0.1000E+02
    -35.908  0.0000E+00  0.1000E+02
    -35.698  0.0000E+00  0.1000E+02
    -35.488  0.0000E+00  0.1000E+02
    -35.278  0.0000E+00  0.1000E+02
    -35.068  0.0000E+00  0.1000E+02
    -34.858  0.0000E+00  0.1000E+02
    -34.648  0.0000E+00  0.1000E+02
    -34.438  0.0000E+00  0.1000E+02
    -34.228  0.0000E+00  0.1000E+02
    -34.018  0.0000E+00  0.1000E+02
    -33.807  0.0000E+00  0.1000E+02
    -33.597  0.0000E+00  0.1000E+02
    -33.387  0.0000E+00  0.1000E+02
    -33.177  0.0000E+00  0.1000E+02
    -32.967  0.0000E+00  0.1000E+02
    -32.757  0.0000E+00  0.1000E+02
    -32.547  0.0000E+00  0.1000E+02
    -32.337  0.0000E+00  0.1000E+02
    -32.127  0.0000E+00  0.1000E+02
    -31.917  0.0000E+00  0.1000E+02
    -31.707  0.0000E+00  0.1000E+02
    -31.497  0.0000E+00  0.1000E+02
    -31.287  0.0000E+00  0.1000E+02
    -31.077  0.0000E+00  0.1000E+02
    -30.867  0.0000E+00  0.1000E+02
    -30.657  0.0000E+00  0.1000E+02
    -30.446  0.0000E+00  0.1000E+02
    -30.236  0.0000E+00  0.1000E+02
    -30.026  0.0000E+00  0.1000E+02
    -29.816  0.0000E+00  0.1000E+02
    -29.606  0.0000E+00  0.1000E+02
    -29.396  0.0000E+00  0.1000E+02
    -29.186  0.0000E+00  0.1000E+02
    -28.976  0.0000E+00  0.1000E+02
    -28.766  0.0000E+00  0.1000E+02
    -28.556  0.0000E+00  0.1000E+02
    -28.346  0.0000E+00  0.1000E+02
    -28.136  0.0000E+00  0.1000E+02
    -27.926  0.0000E+00  0.1000E+02
    -27.716  0.0000E+00  0.1000E+02
    -27.506  0.0000E+00  0.1000E+02
    -27.296  0.0000E+00  0.1000E+02
    -27.085  0.0000E+00  0.1000E+02
    -26.875  0.0000E+00  0.1000E+02
    -26.665  0.0000E+00  0.1000E+02
    -26.455  0.0000E+00  0.1000E+02
    -26.245  0.0000E+00  0.1000E+02
    -26.035  0.0000E+00  0.1000E+02
    -25.825  0.0000E+00  0.1000E+02
    -25.615  0.0000E+00  0.1000E+02
    -25.405  0.0000E+00  0.1000E+02
    -25.195  0.0000E+00  0.1000E+02
    -24.985  0.0000E+00  0.1000E+02
    -24.775  0.0000E+00  0.1000E+02
    -24.565  0.0000E+00  0.1000E+02
    -24.355  0.0000E+00  0.1000E+02
    -24.145  0.0000E+00  0.1000E+02
    -23.935  0.0000E+00  0.1000E+02
    -23.724  0.0000E+00  0.1000E+02
    -23.514  0.0000E+00  0.1000E+02
    -23.304  0.0000E+00  0.1000E+02
    -23.094  0.0000E+00  0.1000E+02
    -22.884  0.0000E+00  0.1000E+02
    -22.674  0.0000E+00  0.1000E+02
    -22.464  0.0000E+00  0.1000E+02
    -22.254  0.0000E+00  0.1000E+02
    -22.044  0.0000E+00  0.1000E+02
    -21.834  0.0000E+00  0.1000E+02
    -21.624  0.0000E+00  0.1000E+02
    -21.414  0.0000E+00  0.1000E+02
    -21.204  0.0000E+00  0.1000E+02
    -20.994  0.0000E+00  0.1000E+02
    -20.784  0.0000E+00  0.1000E+02
    -20.574  0.0000E+00  0.1000E+02
    -20.364  0.0000E+00  0.1000E+02
    -20.153  0.0000E+00  0.1000E+02
    -19.943  0.0000E+00  0.1000E+02
    -19.733  0.0000E+00  0.1000E+02
    -19.523  0.0000E+00  0.1000E+02
    -19.313  0.0000E+00  0.1000E+02
    -19.103  0.0000E+00  0.1000E+02
    -18.893  0.0000E+00  0.1000E+02
    -18.683  0.0000E+00  0.1000E+02
    -18.473  0.0000E+00  0.1000E+02
    -18.263  0.0000E+00  0.1000E+02
    -18.053  0.0000E+00  0.1000E+02
    -17.843  0.1646E-11  0.1000E+02
    -17.633  0.4031E+00  0.1079E+02
    -17.423  0.0000E+00  0.1200E+02
    -17.213  0.0000E+00  0.1200E+02
    -17.003  0.0000E+00  0.1200E+02
    -16.792  0.0000E+00  0.1200E+02
    -16.582  0.0000E+00  0.1200E+02
    -16.372  0.0000E+00  0.1200E+02
    -16.162  0.0000E+00  0.1200E+02
    -15.952  0.0000E+00  0.1200E+02
    -15.742  0.0000E+00  0.1200E+02
    -15.532  0.0000E+00  0.1200E+02
    -15.322  0.0000E+00  0.1200E+02
    -15.112  0.0000E+00  0.1200E+02
    -14.902  0.0000E+00  0.1200E+02
    -14.692  0.0000E+00  0.1200E+02
    -14.482  0.0000E+00  0.1200E+02
    -14.272  0.0000E+00  0.1200E+02
    -14.062  0.0000E+00  0.1200E+02
    -13.852  0.0000E+00  0.1200E+02
    -13.642  0.0000E+00  0.1200E+02
    -13.431  0.0000E+00  0.1200E+02
    -13.221  0.0000E+00  0.1200E+02
    -13.011  0.0000E+00  0.1200E+02
    -12.801  0.0000E+00  0.1200E+02
    -12.591  0.0000E+00  0.1200E+02
    -12.381  0.0000E+00  0.1200E+02
    -12.171  0.0000E+00  0.1200E+02
    -11.961  0.0000E+00  0.1200E+02
    -11.751  0.0000E+00  0.1200E+02
    -11.541  0.0000E+00  0.1200E+02
    -11.331  0.0000E+00  0.1200E+02
    -11.121  0.0000E+00  0.1200E+02
    -10.911  0.0000E+00  0.1200E+02
    -10.701  0.0000E+00  0.1200E+02
    -10.491  0.0000E+00  0.1200E+02
    -10.281  0.0000E+00  0.1200E+02
    -10.070  0.0000E+00  0.1200E+02
     -9.860  0.0000E+00  0.1200E+02
     -9.650  0.0000E+00  0.1200E+02
     -9.440  0.0000E+00  0.1200E+02
     -9.230  0.0000E+00  0.1200E+02
     -9.020  0.0000E+00  0.1200E+02
     -8.810  0.0000E+00  0.1200E+02
     -8.600  0.0000E+00  0.1200E+02
     -8.390  0.0000E+00  0.1200E+02
     -8.180  0.0000E+00  0.1200E+02
     -7.970  0.0000E+00  0.1200E+02
     -7.760  0.0000E+00  0.1200E+02
     -7.550  0.0000E+00  0.1200E+02
     -7.340  0.0000E+00  0.1200E+02
     -7.130  0.0000E+00  0.1200E+02
     -6.920  0.0000E+00  0.1200E+02
     -6.709  0.0000E+00  0.1200E+02
     -6.499  0.0000E+00  0.1200E+02
     -6.289  0.0000E+00  0.1200E+02
     -6.079  0.0000E+00  0.1200E+02
     -5.869  0.2645E+00  0.1214E+02
     -5.659  0.0000E+00  0.1345E+02
     -5.449  0.0000E+00  0.1386E+02
     -5.239  0.0000E+00  0.1399E+02
     -5.029  0.0000E+00  0.1400E+02
     -4.819  0.0000E+00  0.1400E+02
     -4.609  0.0000E+00  0.1400E+02
     -4.399  0.0000E+00  0.1400E+02
     -4.189  0.0000E+00  0.1400E+02
     -3.979  0.0000E+00  0.1400E+02
     -3.769  0.0000E+00  0.1400E+02
     -3.559  0.0000E+00  0.1400E+02
     -3.348  0.0000E+00  0.1400E+02
     -3.138  0.0000E+00  0.1400E+02
     -2.928  0.3637E+00  0.1477E+02
     -2.718  0.0000E+00  0.1545E+02
     -2.508  0.0000E+00  0.1575E+02
     -2.298  0.3296E+00  0.1604E+02
     -2.088  0.4607E+00  0.1677E+02
     -1.878  0.2143E+00  0.1723E+02
     -1.668  0.0000E+00  0.1763E+02
     -1.458  0.0000E+00  0.1791E+02
     -1.248  0.0000E+00  0.1800E+02
     -1.038  0.0000E+00  0.1800E+02
     -0.828  0.0000E+00  0.1800E+02
     -0.618  0.0000E+00  0.1800E+02
     -0.408  0.0000E+00  0.1800E+02
     -0.198  0.0000E+00  0.1800E+02
      0.013  0.0000E+00  0.1800E+02
      0.223  0.0000E+00  0.1800E+02
      0.433  0.0000E+00  0.1800E+02
      0.643  0.0000E+00  0.1800E+02
      0.853  0.0000E+00  0.1800E+02
      1.063  0.0000E+00  0.1800E+02
      1.273  0.0000E+00  0.1800E+02
      1.483  0.0000E+00  0.1800E+02
      1.693  0.0000E+00  0.1800E+02
      1.903  0.0000E+00  0.1800E+02
      2.113  0.0000E+00  0.1800E+02
      2.323  0.0000E+00  0.1800E+02
      2.533  0.0000E+00  0.1800E+02
      2.743  0.0000E+00  0.1800E+02
      2.953  0.0000E+00  0.1800E+02
      3.163  0.0000E+00  0.1801E+02
      3.373  0.0000E+00  0.1801E+02
      3.584  0.0000E+00  0.1801E+02
      3.794  0.0000E+00  0.1801E+02
      4.004  0.5660E-05  0.1805E+02
      4.214  0.0000E+00  0.1808E+02
      4.424  0.0000E+00  0.1814E+02
      4.634  0.0000E+00  0.1817E+02
      4.844  0.0000E+00  0.1820E+02
      5.054  0.7900E+00  0.1867E+02
      5.264  0.0000E+00  0.1878E+02
      5.474  0.0000E+00  0.1900E+02
      5.684  0.3306E+00  0.1947E+02
      5.894  0.5185E+00  0.1980E+02
      6.104  0.0000E+00  0.2008E+02
      6.314  0.0000E+00  0.2031E+02
      6.524  0.0000E+00  0.2031E+02
      6.734  0.0000E+00  0.2064E+02
      6.945  0.0000E+00  0.2131E+02
      7.155  0.1322E+00  0.2169E+02
      7.365  0.0000E+00  0.2203E+02
      7.575  0.0000E+00  0.2203E+02
      7.785  0.0000E+00  0.2232E+02
      7.995  0.1715E+00  0.2255E+02
      8.205  0.0000E+00  0.2303E+02
      8.415  0.1543E+00  0.2321E+02
      8.625  0.4010E+00  0.2390E+02
      8.835  0.0000E+00  0.2450E+02
      9.045  0.0000E+00  0.2467E+02
      9.255  0.0000E+00  0.2539E+02
      9.465  0.0000E+00  0.2550E+02
      9.675  0.0000E+00  0.2561E+02
      9.885  0.0000E+00  0.2583E+02
     10.095  0.0000E+00  0.2583E+02
     10.306  0.0000E+00  0.2602E+02
     10.516  0.1189E+00  0.2659E+02
     10.726  0.0000E+00  0.2667E+02
     10.936  0.4740E-01  0.2716E+02
     11.146  0.0000E+00  0.2739E+02
     11.356  0.0000E+00  0.2761E+02
     11.566  0.0000E+00  0.2761E+02
     11.776  0.0000E+00  0.2783E+02
     11.986  0.0000E+00  0.2783E+02
     12.196  0.4726E-03  0.2783E+02
     12.406  0.0000E+00  0.2786E+02
     12.616  0.3379E-10  0.2797E+02
     12.826  0.0000E+00  0.2800E+02
     13.036  0.0000E+00  0.2800E+02
     13.246  0.0000E+00  0.2800E+02
     13.456  0.0000E+00  0.2800E+02
     13.667  0.0000E+00  0.2800E+02
     13.877  0.0000E+00  0.2800E+02
     14.087  0.0000E+00  0.2800E+02
     14.297  0.0000E+00  0.2800E+02
     14.507  0.0000E+00  0.2800E+02
     14.717  0.0000E+00  0.2800E+02
     14.927  0.0000E+00  0.2800E+02
     15.137  0.0000E+00  0.2800E+02
     15.347  0.0000E+00  0.2800E+02
     15.557  0.0000E+00  0.2800E+02
