 vasp.5.4.4.18Apr17-6-g9f103f2a35 (build Nov 03 2018 10:20:46) complex          
  
 executed on             LinuxIFC date 2018.12.20  14:37:45
 running on   32 total cores
 distrk:  each k-point on    8 cores,    4 groups
 distr:  one band on NCORES_PER_BAND=   4 cores,    2 groups


--------------------------------------------------------------------------------------------------------


 INCAR:
 POTCAR:    PAW_PBE Rn_d_GW 14Apr2014             

 ----------------------------------------------------------------------------- 
|                                                                             |
|           W    W    AA    RRRRR   N    N  II  N    N   GGGG   !!!           |
|           W    W   A  A   R    R  NN   N  II  NN   N  G    G  !!!           |
|           W    W  A    A  R    R  N N  N  II  N N  N  G       !!!           |
|           W WW W  AAAAAA  RRRRR   N  N N  II  N  N N  G  GGG   !            |
|           WW  WW  A    A  R   R   N   NN  II  N   NN  G    G                |
|           W    W  A    A  R    R  N    N  II  N    N   GGGG   !!!           |
|                                                                             |
|      You have enabled k-point parallelism (KPAR>1).                         |
|      This developmental code was originally  written by Paul Kent at ORNL,  |
|      and carefully double checked in Vienna.                                |
|      GW as well as linear response parallelism added by Martijn Marsman     |
|      and Georg Kresse.                                                      |
|      Carefully verify results versus KPAR=1.                                |
|      Report problems to Paul Kent and Vienna.                               |
|                                                                             |
 ----------------------------------------------------------------------------- 

 POTCAR:    PAW_PBE Rn_d_GW 14Apr2014             
   VRHFIN =Rn:                                                                  
   LEXCH  = PE                                                                  
   EATOM  =  3030.7130 eV,  222.7511 Ry                                         
                                                                                
   TITEL  = PAW_PBE Rn_d_GW 14Apr2014                                           
   LULTRA =        F    use ultrasoft PP ?                                      
   IUNSCR =        1    unscreen: 0-lin 1-nonlin 2-no                           
   RPACOR =    1.800    partial core radius                                     
   POMASS =  220.170; ZVAL   =   18.000    mass and valenz                      
   RCORE  =    2.500    outmost cutoff radius                                   
   RWIGS  =    2.500; RWIGS  =    1.323    wigner-seitz radius (au A)           
   ENMAX  =  268.495; ENMIN  =  201.371 eV                                      
   RCLOC  =    1.808    cutoff for local pot                                    
   LCOR   =        T    correct aug charges                                     
   LPAW   =        T    paw PP                                                  
   EAUG   =  715.607                                                            
   DEXC   =    0.000                                                            
   RMAX   =    2.556    core radius for proj-oper                               
   RAUG   =    1.300    factor for augmentation sphere                          
   RDEP   =    2.531    radius for radial grids                                 
   RDEPT  =    1.947    core radius for aug-charge                              
                                                                                
   Atomic configuration                                                         
   16 entries                                                                   
     n  l   j            E        occ.                                          
     1  0  0.50    -98595.8050   2.0000                                         
     2  0  0.50    -17950.5082   2.0000                                         
     2  1  1.50    -15211.8638   6.0000                                         
     3  0  0.50     -4402.4302   2.0000                                         
     3  1  1.50     -3628.5852   6.0000                                         
     3  2  2.50     -2889.7488  10.0000                                         
     4  0  0.50     -1049.6607   2.0000                                         
     4  1  1.50      -796.4440   6.0000                                         
     4  2  2.50      -519.0207  10.0000                                         
     4  3  3.50      -216.6456  14.0000                                         
     5  0  0.50      -201.5459   2.0000                                         
     5  1  1.50      -127.7069   6.0000                                         
     5  2  2.50       -46.2584  10.0000                                         
     6  0  0.50       -21.8730   2.0000                                         
     6  1  0.50        -7.7135   6.0000                                         
     5  3  2.50        -2.7212   0.0000                                         
   Description                                                                  
     l       E           TYP  RCUT    TYP  RCUT                                 
     2    -46.2583946     23  2.400                                             
     2    -47.6189772     23  2.400                                             
     2     40.8174780     23  2.400                                             
     0    -21.8730472     23  1.700                                             
     0     81.6349560     23  1.700                                             
     1     -7.7135306     23  2.300                                             
     1     68.0291300     23  2.300                                             
     3      6.8029130     23  2.500                                             
     3     27.2116520     23  2.500                                             
  local pseudopotential read in
  partial core-charges read in
  partial kinetic energy density read in
  kinetic energy density of atom read in
  atomic valenz-charges read in
  non local Contribution for L=           2  read in
    real space projection operators read in
  non local Contribution for L=           2  read in
    real space projection operators read in
  non local Contribution for L=           2  read in
    real space projection operators read in
  non local Contribution for L=           0  read in
    real space projection operators read in
  non local Contribution for L=           0  read in
    real space projection operators read in
  non local Contribution for L=           1  read in
    real space projection operators read in
  non local Contribution for L=           1  read in
    real space projection operators read in
  non local Contribution for L=           3  read in
    real space projection operators read in
  non local Contribution for L=           3  read in
    real space projection operators read in
    PAW grid and wavefunctions read in
 
   number of l-projection  operators is LMAX  =           9
   number of lm-projection operators is LMMAX =          37
 
  PAW_PBE Rn_d_GW 14Apr2014             :
 energy of atom  1       EATOM=-3030.7130
 kinetic energy error for atom=    0.0889 (will be added to EATOM!!)
 
 
 POSCAR: Rn_FCC                                  
  positions in direct lattice
  velocities in cartesian coordinates

 METAGGA = SCAN     LMAXTAU =  0    LMIXTAU =  F

 exchange correlation table for  LEXCH =        8
   RHO(1)=    0.500       N(1)  =     2000
   RHO(2)=  100.500       N(2)  =     4000
 


--------------------------------------------------------------------------------------------------------


 ion  position               nearest neighbor table
   1  0.000  0.000  0.000-
 

IMPORTANT INFORMATION: All symmetrisations will be switched off!
NOSYMM: (Re-)initialisation of all symmetry stuff for point group C_1.

 
 
 KPOINTS: k-points                                

Automatic generation of k-mesh.
Space group operators:
 irot       det(A)        alpha          n_x          n_y          n_z        tau_x        tau_y        tau_z
    1     1.000000     0.000000     1.000000     0.000000     0.000000     0.000000     0.000000     0.000000
 
 Subroutine IBZKPT returns following result:
 ===========================================
 
 Found    216 irreducible k-points:
 
 Following reciprocal coordinates:
            Coordinates               Weight
  0.000000  0.000000  0.000000      1.000000
  0.166667  0.000000  0.000000      1.000000
  0.333333  0.000000  0.000000      1.000000
  0.500000  0.000000  0.000000      1.000000
 -0.333333 -0.000000 -0.000000      1.000000
 -0.166667 -0.000000 -0.000000      1.000000
  0.000000  0.166667 -0.000000      1.000000
  0.166667  0.166667  0.000000      1.000000
  0.333333  0.166667  0.000000      1.000000
  0.500000  0.166667  0.000000      1.000000
 -0.333333  0.166667 -0.000000      1.000000
 -0.166667  0.166667 -0.000000      1.000000
  0.000000  0.333333  0.000000      1.000000
  0.166667  0.333333  0.000000      1.000000
  0.333333  0.333333  0.000000      1.000000
  0.500000  0.333333  0.000000      1.000000
 -0.333333  0.333333 -0.000000      1.000000
 -0.166667  0.333333 -0.000000      1.000000
  0.000000  0.500000  0.000000      1.000000
  0.166667  0.500000  0.000000      1.000000
  0.333333  0.500000  0.000000      1.000000
  0.500000  0.500000  0.000000      1.000000
 -0.333333  0.500000 -0.000000      1.000000
 -0.166667  0.500000 -0.000000      1.000000
  0.000000 -0.333333  0.000000      1.000000
  0.166667 -0.333333  0.000000      1.000000
  0.333333 -0.333333  0.000000      1.000000
  0.500000 -0.333333  0.000000      1.000000
 -0.333333 -0.333333 -0.000000      1.000000
 -0.166667 -0.333333 -0.000000      1.000000
  0.000000 -0.166667  0.000000      1.000000
  0.166667 -0.166667  0.000000      1.000000
  0.333333 -0.166667  0.000000      1.000000
  0.500000 -0.166667  0.000000      1.000000
 -0.333333 -0.166667 -0.000000      1.000000
 -0.166667 -0.166667 -0.000000      1.000000
  0.000000 -0.000000  0.166667      1.000000
  0.166667  0.000000  0.166667      1.000000
  0.333333  0.000000  0.166667      1.000000
  0.500000  0.000000  0.166667      1.000000
 -0.333333 -0.000000  0.166667      1.000000
 -0.166667 -0.000000  0.166667      1.000000
  0.000000  0.166667  0.166667      1.000000
  0.166667  0.166667  0.166667      1.000000
  0.333333  0.166667  0.166667      1.000000
  0.500000  0.166667  0.166667      1.000000
 -0.333333  0.166667  0.166667      1.000000
 -0.166667  0.166667  0.166667      1.000000
  0.000000  0.333333  0.166667      1.000000
  0.166667  0.333333  0.166667      1.000000
  0.333333  0.333333  0.166667      1.000000
  0.500000  0.333333  0.166667      1.000000
 -0.333333  0.333333  0.166667      1.000000
 -0.166667  0.333333  0.166667      1.000000
  0.000000  0.500000  0.166667      1.000000
  0.166667  0.500000  0.166667      1.000000
  0.333333  0.500000  0.166667      1.000000
  0.500000  0.500000  0.166667      1.000000
 -0.333333  0.500000  0.166667      1.000000
 -0.166667  0.500000  0.166667      1.000000
 -0.000000 -0.333333  0.166667      1.000000
  0.166667 -0.333333  0.166667      1.000000
  0.333333 -0.333333  0.166667      1.000000
  0.500000 -0.333333  0.166667      1.000000
 -0.333333 -0.333333  0.166667      1.000000
 -0.166667 -0.333333  0.166667      1.000000
 -0.000000 -0.166667  0.166667      1.000000
  0.166667 -0.166667  0.166667      1.000000
  0.333333 -0.166667  0.166667      1.000000
  0.500000 -0.166667  0.166667      1.000000
 -0.333333 -0.166667  0.166667      1.000000
 -0.166667 -0.166667  0.166667      1.000000
 -0.000000 -0.000000  0.333333      1.000000
  0.166667  0.000000  0.333333      1.000000
  0.333333  0.000000  0.333333      1.000000
  0.500000  0.000000  0.333333      1.000000
 -0.333333 -0.000000  0.333333      1.000000
 -0.166667 -0.000000  0.333333      1.000000
 -0.000000  0.166667  0.333333      1.000000
  0.166667  0.166667  0.333333      1.000000
  0.333333  0.166667  0.333333      1.000000
  0.500000  0.166667  0.333333      1.000000
 -0.333333  0.166667  0.333333      1.000000
 -0.166667  0.166667  0.333333      1.000000
 -0.000000  0.333333  0.333333      1.000000
  0.166667  0.333333  0.333333      1.000000
  0.333333  0.333333  0.333333      1.000000
  0.500000  0.333333  0.333333      1.000000
 -0.333333  0.333333  0.333333      1.000000
 -0.166667  0.333333  0.333333      1.000000
  0.000000  0.500000  0.333333      1.000000
  0.166667  0.500000  0.333333      1.000000
  0.333333  0.500000  0.333333      1.000000
  0.500000  0.500000  0.333333      1.000000
 -0.333333  0.500000  0.333333      1.000000
 -0.166667  0.500000  0.333333      1.000000
 -0.000000 -0.333333  0.333333      1.000000
  0.166667 -0.333333  0.333333      1.000000
  0.333333 -0.333333  0.333333      1.000000
  0.500000 -0.333333  0.333333      1.000000
 -0.333333 -0.333333  0.333333      1.000000
 -0.166667 -0.333333  0.333333      1.000000
 -0.000000 -0.166667  0.333333      1.000000
  0.166667 -0.166667  0.333333      1.000000
  0.333333 -0.166667  0.333333      1.000000
  0.500000 -0.166667  0.333333      1.000000
 -0.333333 -0.166667  0.333333      1.000000
 -0.166667 -0.166667  0.333333      1.000000
 -0.000000 -0.000000  0.500000      1.000000
  0.166667  0.000000  0.500000      1.000000
  0.333333  0.000000  0.500000      1.000000
  0.500000  0.000000  0.500000      1.000000
 -0.333333 -0.000000  0.500000      1.000000
 -0.166667 -0.000000  0.500000      1.000000
 -0.000000  0.166667  0.500000      1.000000
  0.166667  0.166667  0.500000      1.000000
  0.333333  0.166667  0.500000      1.000000
  0.500000  0.166667  0.500000      1.000000
 -0.333333  0.166667  0.500000      1.000000
 -0.166667  0.166667  0.500000      1.000000
 -0.000000  0.333333  0.500000      1.000000
  0.166667  0.333333  0.500000      1.000000
  0.333333  0.333333  0.500000      1.000000
  0.500000  0.333333  0.500000      1.000000
 -0.333333  0.333333  0.500000      1.000000
 -0.166667  0.333333  0.500000      1.000000
 -0.000000  0.500000  0.500000      1.000000
  0.166667  0.500000  0.500000      1.000000
  0.333333  0.500000  0.500000      1.000000
  0.500000  0.500000  0.500000      1.000000
 -0.333333  0.500000  0.500000      1.000000
 -0.166667  0.500000  0.500000      1.000000
  0.000000 -0.333333  0.500000      1.000000
  0.166667 -0.333333  0.500000      1.000000
  0.333333 -0.333333  0.500000      1.000000
  0.500000 -0.333333  0.500000      1.000000
 -0.333333 -0.333333  0.500000      1.000000
 -0.166667 -0.333333  0.500000      1.000000
  0.000000 -0.166667  0.500000      1.000000
  0.166667 -0.166667  0.500000      1.000000
  0.333333 -0.166667  0.500000      1.000000
  0.500000 -0.166667  0.500000      1.000000
 -0.333333 -0.166667  0.500000      1.000000
 -0.166667 -0.166667  0.500000      1.000000
  0.000000  0.000000 -0.333333      1.000000
  0.166667  0.000000 -0.333333      1.000000
  0.333333  0.000000 -0.333333      1.000000
  0.500000  0.000000 -0.333333      1.000000
 -0.333333 -0.000000 -0.333333      1.000000
 -0.166667 -0.000000 -0.333333      1.000000
  0.000000  0.166667 -0.333333      1.000000
  0.166667  0.166667 -0.333333      1.000000
  0.333333  0.166667 -0.333333      1.000000
  0.500000  0.166667 -0.333333      1.000000
 -0.333333  0.166667 -0.333333      1.000000
 -0.166667  0.166667 -0.333333      1.000000
  0.000000  0.333333 -0.333333      1.000000
  0.166667  0.333333 -0.333333      1.000000
  0.333333  0.333333 -0.333333      1.000000
  0.500000  0.333333 -0.333333      1.000000
 -0.333333  0.333333 -0.333333      1.000000
 -0.166667  0.333333 -0.333333      1.000000
  0.000000  0.500000 -0.333333      1.000000
  0.166667  0.500000 -0.333333      1.000000
  0.333333  0.500000 -0.333333      1.000000
  0.500000  0.500000 -0.333333      1.000000
 -0.333333  0.500000 -0.333333      1.000000
 -0.166667  0.500000 -0.333333      1.000000
  0.000000 -0.333333 -0.333333      1.000000
  0.166667 -0.333333 -0.333333      1.000000
  0.333333 -0.333333 -0.333333      1.000000
  0.500000 -0.333333 -0.333333      1.000000
 -0.333333 -0.333333 -0.333333      1.000000
 -0.166667 -0.333333 -0.333333      1.000000
  0.000000 -0.166667 -0.333333      1.000000
  0.166667 -0.166667 -0.333333      1.000000
  0.333333 -0.166667 -0.333333      1.000000
  0.500000 -0.166667 -0.333333      1.000000
 -0.333333 -0.166667 -0.333333      1.000000
 -0.166667 -0.166667 -0.333333      1.000000
  0.000000  0.000000 -0.166667      1.000000
  0.166667  0.000000 -0.166667      1.000000
  0.333333  0.000000 -0.166667      1.000000
  0.500000  0.000000 -0.166667      1.000000
 -0.333333 -0.000000 -0.166667      1.000000
 -0.166667 -0.000000 -0.166667      1.000000
  0.000000  0.166667 -0.166667      1.000000
  0.166667  0.166667 -0.166667      1.000000
  0.333333  0.166667 -0.166667      1.000000
  0.500000  0.166667 -0.166667      1.000000
 -0.333333  0.166667 -0.166667      1.000000
 -0.166667  0.166667 -0.166667      1.000000
  0.000000  0.333333 -0.166667      1.000000
  0.166667  0.333333 -0.166667      1.000000
  0.333333  0.333333 -0.166667      1.000000
  0.500000  0.333333 -0.166667      1.000000
 -0.333333  0.333333 -0.166667      1.000000
 -0.166667  0.333333 -0.166667      1.000000
 -0.000000  0.500000 -0.166667      1.000000
  0.166667  0.500000 -0.166667      1.000000
  0.333333  0.500000 -0.166667      1.000000
  0.500000  0.500000 -0.166667      1.000000
 -0.333333  0.500000 -0.166667      1.000000
 -0.166667  0.500000 -0.166667      1.000000
 -0.000000 -0.333333 -0.166667      1.000000
  0.166667 -0.333333 -0.166667      1.000000
  0.333333 -0.333333 -0.166667      1.000000
  0.500000 -0.333333 -0.166667      1.000000
 -0.333333 -0.333333 -0.166667      1.000000
 -0.166667 -0.333333 -0.166667      1.000000
 -0.000000 -0.166667 -0.166667      1.000000
  0.166667 -0.166667 -0.166667      1.000000
  0.333333 -0.166667 -0.166667      1.000000
  0.500000 -0.166667 -0.166667      1.000000
 -0.333333 -0.166667 -0.166667      1.000000
 -0.166667 -0.166667 -0.166667      1.000000
 
 Following cartesian coordinates:
            Coordinates               Weight
  0.000000  0.000000  0.000000      1.000000
  0.036869 -0.021286 -0.015052      1.000000
  0.073737 -0.042572 -0.030103      1.000000
  0.110606 -0.063858 -0.045155      1.000000
 -0.073737  0.042572  0.030103      1.000000
 -0.036869  0.021286  0.015052      1.000000
  0.000000  0.042572 -0.015052      1.000000
  0.036869  0.021286 -0.030103      1.000000
  0.073737  0.000000 -0.045155      1.000000
  0.110606 -0.021286 -0.060206      1.000000
 -0.073737  0.085144  0.015052      1.000000
 -0.036869  0.063858  0.000000      1.000000
  0.000000  0.085144 -0.030103      1.000000
  0.036869  0.063858 -0.045155      1.000000
  0.073737  0.042572 -0.060206      1.000000
  0.110606  0.021286 -0.075258      1.000000
 -0.073737  0.127716  0.000000      1.000000
 -0.036869  0.106430 -0.015052      1.000000
  0.000000  0.127716 -0.045155      1.000000
  0.036869  0.106430 -0.060206      1.000000
  0.073737  0.085144 -0.075258      1.000000
  0.110606  0.063858 -0.090309      1.000000
 -0.073737  0.170289 -0.015052      1.000000
 -0.036869  0.149002 -0.030103      1.000000
 -0.000000 -0.085144  0.030103      1.000000
  0.036869 -0.106430  0.015052      1.000000
  0.073737 -0.127716 -0.000000      1.000000
  0.110606 -0.149002 -0.015052      1.000000
 -0.073737 -0.042572  0.060206      1.000000
 -0.036869 -0.063858  0.045155      1.000000
 -0.000000 -0.042572  0.015052      1.000000
  0.036869 -0.063858 -0.000000      1.000000
  0.073737 -0.085144 -0.015052      1.000000
  0.110606 -0.106430 -0.030103      1.000000
 -0.073737 -0.000000  0.045155      1.000000
 -0.036869 -0.021286  0.030103      1.000000
 -0.000000  0.000000  0.045155      1.000000
  0.036869 -0.021286  0.030103      1.000000
  0.073737 -0.042572  0.015052      1.000000
  0.110606 -0.063858 -0.000000      1.000000
 -0.073737  0.042572  0.075258      1.000000
 -0.036869  0.021286  0.060206      1.000000
 -0.000000  0.042572  0.030103      1.000000
  0.036869  0.021286  0.015052      1.000000
  0.073737  0.000000  0.000000      1.000000
  0.110606 -0.021286 -0.015052      1.000000
 -0.073737  0.085144  0.060206      1.000000
 -0.036869  0.063858  0.045155      1.000000
 -0.000000  0.085144  0.015052      1.000000
  0.036869  0.063858  0.000000      1.000000
  0.073737  0.042572 -0.015052      1.000000
  0.110606  0.021286 -0.030103      1.000000
 -0.073737  0.127716  0.045155      1.000000
 -0.036869  0.106430  0.030103      1.000000
 -0.000000  0.127716  0.000000      1.000000
  0.036869  0.106430 -0.015052      1.000000
  0.073737  0.085144 -0.030103      1.000000
  0.110606  0.063858 -0.045155      1.000000
 -0.073737  0.170289  0.030103      1.000000
 -0.036869  0.149002  0.015052      1.000000
 -0.000000 -0.085144  0.075258      1.000000
  0.036869 -0.106430  0.060206      1.000000
  0.073737 -0.127716  0.045155      1.000000
  0.110606 -0.149002  0.030103      1.000000
 -0.073737 -0.042572  0.105361      1.000000
 -0.036869 -0.063858  0.090309      1.000000
 -0.000000 -0.042572  0.060206      1.000000
  0.036869 -0.063858  0.045155      1.000000
  0.073737 -0.085144  0.030103      1.000000
  0.110606 -0.106430  0.015052      1.000000
 -0.073737 -0.000000  0.090309      1.000000
 -0.036869 -0.021286  0.075258      1.000000
 -0.000000  0.000000  0.090309      1.000000
  0.036869 -0.021286  0.075258      1.000000
  0.073737 -0.042572  0.060206      1.000000
  0.110606 -0.063858  0.045155      1.000000
 -0.073737  0.042572  0.120412      1.000000
 -0.036869  0.021286  0.105361      1.000000
 -0.000000  0.042572  0.075258      1.000000
  0.036869  0.021286  0.060206      1.000000
  0.073737  0.000000  0.045155      1.000000
  0.110606 -0.021286  0.030103      1.000000
 -0.073737  0.085144  0.105361      1.000000
 -0.036869  0.063858  0.090309      1.000000
 -0.000000  0.085144  0.060206      1.000000
  0.036869  0.063858  0.045155      1.000000
  0.073737  0.042572  0.030103      1.000000
  0.110606  0.021286  0.015052      1.000000
 -0.073737  0.127716  0.090309      1.000000
 -0.036869  0.106430  0.075258      1.000000
 -0.000000  0.127716  0.045155      1.000000
  0.036869  0.106430  0.030103      1.000000
  0.073737  0.085144  0.015052      1.000000
  0.110606  0.063858  0.000000      1.000000
 -0.073737  0.170289  0.075258      1.000000
 -0.036869  0.149002  0.060206      1.000000
 -0.000000 -0.085144  0.120412      1.000000
  0.036869 -0.106430  0.105361      1.000000
  0.073737 -0.127716  0.090309      1.000000
  0.110606 -0.149002  0.075258      1.000000
 -0.073737 -0.042572  0.150515      1.000000
 -0.036869 -0.063858  0.135464      1.000000
 -0.000000 -0.042572  0.105361      1.000000
  0.036869 -0.063858  0.090309      1.000000
  0.073737 -0.085144  0.075258      1.000000
  0.110606 -0.106430  0.060206      1.000000
 -0.073737 -0.000000  0.135464      1.000000
 -0.036869 -0.021286  0.120412      1.000000
 -0.000000  0.000000  0.135464      1.000000
  0.036869 -0.021286  0.120412      1.000000
  0.073737 -0.042572  0.105361      1.000000
  0.110606 -0.063858  0.090309      1.000000
 -0.073737  0.042572  0.165567      1.000000
 -0.036869  0.021286  0.150515      1.000000
 -0.000000  0.042572  0.120412      1.000000
  0.036869  0.021286  0.105361      1.000000
  0.073737  0.000000  0.090309      1.000000
  0.110606 -0.021286  0.075258      1.000000
 -0.073737  0.085144  0.150515      1.000000
 -0.036869  0.063858  0.135464      1.000000
 -0.000000  0.085144  0.105361      1.000000
  0.036869  0.063858  0.090309      1.000000
  0.073737  0.042572  0.075258      1.000000
  0.110606  0.021286  0.060206      1.000000
 -0.073737  0.127716  0.135464      1.000000
 -0.036869  0.106430  0.120412      1.000000
 -0.000000  0.127716  0.090309      1.000000
  0.036869  0.106430  0.075258      1.000000
  0.073737  0.085144  0.060206      1.000000
  0.110606  0.063858  0.045155      1.000000
 -0.073737  0.170289  0.120412      1.000000
 -0.036869  0.149002  0.105361      1.000000
 -0.000000 -0.085144  0.165567      1.000000
  0.036869 -0.106430  0.150515      1.000000
  0.073737 -0.127716  0.135464      1.000000
  0.110606 -0.149002  0.120412      1.000000
 -0.073737 -0.042572  0.195670      1.000000
 -0.036869 -0.063858  0.180618      1.000000
 -0.000000 -0.042572  0.150515      1.000000
  0.036869 -0.063858  0.135464      1.000000
  0.073737 -0.085144  0.120412      1.000000
  0.110606 -0.106430  0.105361      1.000000
 -0.073737 -0.000000  0.180618      1.000000
 -0.036869 -0.021286  0.165567      1.000000
  0.000000 -0.000000 -0.090309      1.000000
  0.036869 -0.021286 -0.105361      1.000000
  0.073737 -0.042572 -0.120412      1.000000
  0.110606 -0.063858 -0.135464      1.000000
 -0.073737  0.042572 -0.060206      1.000000
 -0.036869  0.021286 -0.075258      1.000000
  0.000000  0.042572 -0.105361      1.000000
  0.036869  0.021286 -0.120412      1.000000
  0.073737  0.000000 -0.135464      1.000000
  0.110606 -0.021286 -0.150515      1.000000
 -0.073737  0.085144 -0.075258      1.000000
 -0.036869  0.063858 -0.090309      1.000000
  0.000000  0.085144 -0.120412      1.000000
  0.036869  0.063858 -0.135464      1.000000
  0.073737  0.042572 -0.150515      1.000000
  0.110606  0.021286 -0.165567      1.000000
 -0.073737  0.127716 -0.090309      1.000000
 -0.036869  0.106430 -0.105361      1.000000
  0.000000  0.127716 -0.135464      1.000000
  0.036869  0.106430 -0.150515      1.000000
  0.073737  0.085144 -0.165567      1.000000
  0.110606  0.063858 -0.180618      1.000000
 -0.073737  0.170289 -0.105361      1.000000
 -0.036869  0.149002 -0.120412      1.000000
  0.000000 -0.085144 -0.060206      1.000000
  0.036869 -0.106430 -0.075258      1.000000
  0.073737 -0.127716 -0.090309      1.000000
  0.110606 -0.149002 -0.105361      1.000000
 -0.073737 -0.042572 -0.030103      1.000000
 -0.036869 -0.063858 -0.045155      1.000000
  0.000000 -0.042572 -0.075258      1.000000
  0.036869 -0.063858 -0.090309      1.000000
  0.073737 -0.085144 -0.105361      1.000000
  0.110606 -0.106430 -0.120412      1.000000
 -0.073737 -0.000000 -0.045155      1.000000
 -0.036869 -0.021286 -0.060206      1.000000
  0.000000 -0.000000 -0.045155      1.000000
  0.036869 -0.021286 -0.060206      1.000000
  0.073737 -0.042572 -0.075258      1.000000
  0.110606 -0.063858 -0.090309      1.000000
 -0.073737  0.042572 -0.015052      1.000000
 -0.036869  0.021286 -0.030103      1.000000
  0.000000  0.042572 -0.060206      1.000000
  0.036869  0.021286 -0.075258      1.000000
  0.073737  0.000000 -0.090309      1.000000
  0.110606 -0.021286 -0.105361      1.000000
 -0.073737  0.085144 -0.030103      1.000000
 -0.036869  0.063858 -0.045155      1.000000
  0.000000  0.085144 -0.075258      1.000000
  0.036869  0.063858 -0.090309      1.000000
  0.073737  0.042572 -0.105361      1.000000
  0.110606  0.021286 -0.120412      1.000000
 -0.073737  0.127716 -0.045155      1.000000
 -0.036869  0.106430 -0.060206      1.000000
  0.000000  0.127716 -0.090309      1.000000
  0.036869  0.106430 -0.105361      1.000000
  0.073737  0.085144 -0.120412      1.000000
  0.110606  0.063858 -0.135464      1.000000
 -0.073737  0.170289 -0.060206      1.000000
 -0.036869  0.149002 -0.075258      1.000000
  0.000000 -0.085144 -0.015052      1.000000
  0.036869 -0.106430 -0.030103      1.000000
  0.073737 -0.127716 -0.045155      1.000000
  0.110606 -0.149002 -0.060206      1.000000
 -0.073737 -0.042572  0.015052      1.000000
 -0.036869 -0.063858 -0.000000      1.000000
  0.000000 -0.042572 -0.030103      1.000000
  0.036869 -0.063858 -0.045155      1.000000
  0.073737 -0.085144 -0.060206      1.000000
  0.110606 -0.106430 -0.075258      1.000000
 -0.073737 -0.000000 -0.000000      1.000000
 -0.036869 -0.021286 -0.015052      1.000000
 


--------------------------------------------------------------------------------------------------------




 Dimension of arrays:
   k-points           NKPTS =    216   k-points in BZ     NKDIM =    216   number of bands    NBANDS=     28
   number of dos      NEDOS =    301   number of ions     NIONS =      1
   non local maximal  LDIM  =      9   non local SUM 2l+1 LMDIM =     37
   total plane-waves  NPLWV =  21952
   max r-space proj   IRMAX =      1   max aug-charges    IRDMAX= 111272
   dimension x,y,z NGX =    28 NGY =   28 NGZ =   28
   dimension x,y,z NGXF=    56 NGYF=   56 NGZF=   56
   support grid    NGXF=   112 NGYF=  112 NGZF=  112
   ions per type =               1
   NGX,Y,Z   is equivalent  to a cutoff of  10.54, 10.54, 10.54 a.u.
   NGXF,Y,Z  is equivalent  to a cutoff of  21.09, 21.09, 21.09 a.u.

 SYSTEM =  Og_FCC                                  
 POSCAR =  Rn_FCC                                  

 Startparameter for this run:
   NWRITE =      2    write-flag & timer
   PREC   = accura    normal or accurate (medium, high low for compatibility)
   ISTART =      0    job   : 0-new  1-cont  2-samecut
   ICHARG =      2    charge: 1-file 2-atom 10-const
   ISPIN  =      1    spin polarized calculation?
   LNONCOLLINEAR =      T non collinear calculations
   LSORBIT =      T    spin-orbit coupling
   INIWAV =      1    electr: 0-lowe 1-rand  2-diag
   LASPH  =      F    aspherical Exc in radial PAW
   METAGGA=      F    non-selfconsistent MetaGGA calc.

 Electronic Relaxation 1
   ENCUT  =  300.0 eV  22.05 Ry    4.70 a.u.   6.23  6.23  6.23*2*pi/ulx,y,z
   ENINI  =  300.0     initial cutoff
   ENAUG  =  715.6 eV  augmentation charge cutoff
   NELM   =     50;   NELMIN=  2; NELMDL= -5     # of ELM steps 
   EDIFF  = 0.1E-07   stopping-criterion for ELM
   LREAL  =      F    real-space projection
   NLSPLINE    = F    spline interpolate recip. space projectors
   LCOMPAT=      F    compatible to vasp.4.4
   GGA_COMPAT  = F    GGA compatible to vasp.4.4-vasp.4.6
   LMAXPAW     = -100 max onsite density
   LMAXMIX     =    2 max onsite mixed and CHGCAR
   VOSKOWN=      0    Vosko Wilk Nusair interpolation
   ROPT   =    0.00000
 Ionic relaxation
   EDIFFG = 0.1E-04   stopping-criterion for IOM
   NSW    =      1    number of steps for IOM
   NBLOCK =      1;   KBLOCK =      1    inner block; outer block 
   IBRION =     -1    ionic relax: 0-MD 1-quasi-New 2-CG
   NFREE  =      5    steps in history (QN), initial steepest desc. (CG)
   ISIF   =      3    stress and relaxation
   IWAVPR =     10    prediction:  0-non 1-charg 2-wave 3-comb
   ISYM   =      0    0-nonsym 1-usesym 2-fastsym
   LCORR  =      T    Harris-Foulkes like correction to forces

   POTIM  = 0.1000    time-step for ionic-motion
   TEIN   =    0.0    initial temperature
   TEBEG  =    0.0;   TEEND  =   0.0 temperature during run
   SMASS  =  -3.00    Nose mass-parameter (am)
   estimated Nose-frequenzy (Omega)   =  0.10E-29 period in steps =****** mass=  -0.445E-27a.u.
   SCALEE = 1.0000    scale energy and forces
   NPACO  =    256;   APACO  = 16.0  distance and # of slots for P.C.
   PSTRESS=    0.0 pullay stress

  Mass of Ions in am
   POMASS = 220.17
  Ionic Valenz
   ZVAL   =  18.00
  Atomic Wigner-Seitz radii
   RWIGS  =  -1.00
  virtual crystal weights 
   VCA    =   1.00
   NELECT =      18.0000    total number of electrons
   NUPDOWN=      -1.0000    fix difference up-down

 DOS related values:
   EMIN   =  10.00;   EMAX   =-10.00  energy-range for DOS
   EFERMI =   0.00
   ISMEAR =     0;   SIGMA  =   0.00  broadening in eV -4-tet -1-fermi 0-gaus

 Electronic relaxation 2 (details)
   IALGO  =     38    algorithm
   LDIAG  =      T    sub-space diagonalisation (order eigenvalues)
   LSUBROT=      F    optimize rotation matrix (better conditioning)
   TURBO    =      0    0=normal 1=particle mesh
   IRESTART =      0    0=no restart 2=restart with 2 vectors
   NREBOOT  =      0    no. of reboots
   NMIN     =      0    reboot dimension
   EREF     =   0.00    reference energy to select bands
   IMIX   =      4    mixing-type and parameters
     AMIX     =   0.40;   BMIX     =  1.00
     AMIX_MAG =   1.60;   BMIX_MAG =  1.00
     AMIN     =   0.10
     WC   =   100.;   INIMIX=   1;  MIXPRE=   1;  MAXMIX=  50

 Intra band minimization:
   WEIMIN = 0.0000     energy-eigenvalue tresh-hold
   EBREAK =  0.89E-10  absolut break condition
   DEPER  =   0.30     relativ break condition  

   TIME   =   0.40     timestep for ELM

  volume/ion in A,a.u.               =      60.83       410.53
  Fermi-wavevector in a.u.,A,eV,Ry     =   1.090892  2.061487 16.191546  1.190045
  Thomas-Fermi vector in A             =   2.227126
 
 Write flags
   LWAVE        =      T    write WAVECAR
   LDOWNSAMPLE  =      F    k-point downsampling of WAVECAR
   LCHARG       =      F    write CHGCAR
   LVTOT        =      F    write LOCPOT, total local potential
   LVHAR        =      F    write LOCPOT, Hartree potential only
   LELF         =      F    write electronic localiz. function (ELF)
   LORBIT       =      0    0 simple, 1 ext, 2 COOP (PROOUT), +10 PAW based schemes


 Dipole corrections
   LMONO  =      F    monopole corrections only (constant potential shift)
   LDIPOL =      F    correct potential (dipole corrections)
   IDIPOL =      0    1-x, 2-y, 3-z, 4-all directions 
   EPSILON=  1.0000000 bulk dielectric constant

 Exchange correlation treatment:
   GGA     =    --    GGA type
   LEXCH   =     8    internal setting for exchange type
   VOSKOWN=      0    Vosko Wilk Nusair interpolation
   LHFCALC =     F    Hartree Fock is set to
   LHFONE  =     F    Hartree Fock one center treatment
   AEXX    =    0.0000 exact exchange contribution

 Linear response parameters
   LEPSILON=     F    determine dielectric tensor
   LRPA    =     F    only Hartree local field effects (RPA)
   LNABLA  =     F    use nabla operator in PAW spheres
   LVEL    =     F    velocity operator in full k-point grid
   LINTERFAST=   F  fast interpolation
   KINTER  =     0    interpolate to denser k-point grid
   CSHIFT  =0.1000    complex shift for real part using Kramers Kronig
   OMEGAMAX=  -1.0    maximum frequency
   DEG_THRESHOLD= 0.2000000E-02 threshold for treating states as degnerate
   RTIME   =   -0.100 relaxation time in fs
  (WPLASMAI=    0.000 imaginary part of plasma frequency in eV, 0.658/RTIME)
   DFIELD  = 0.0000000 0.0000000 0.0000000 field for delta impulse in time
 
 Orbital magnetization related:
   ORBITALMAG=     F  switch on orbital magnetization
   LCHIMAG   =     F  perturbation theory with respect to B field
   DQ        =  0.001000  dq finite difference perturbation B field
   LLRAUG    =     F  two centre corrections for induced B field



--------------------------------------------------------------------------------------------------------


 Static calculation
 charge density and potential will be updated during run
 non collinear spin polarized calculation
 Variant of blocked Davidson
 Davidson routine will perform the subspace rotation
 perform sub-space diagonalisation
    after iterative eigenvector-optimisation
 modified Broyden-mixing scheme, WC =      100.0
 initial mixing is a Kerker type mixing with AMIX =  0.4000 and BMIX =      1.0000
 Hartree-type preconditioning will be used
 using additional bands           19
 reciprocal scheme for non local part
 use partial core corrections
 calculate Harris-corrections to forces 
   (improved forces if not selfconsistent)
 use gradient corrections 
 use of overlap-Matrix (Vanderbilt PP)
 Gauss-broadening in eV      SIGMA  =   0.00


--------------------------------------------------------------------------------------------------------


  energy-cutoff  :      300.00
  volume of cell :       60.83
      direct lattice vectors                 reciprocal lattice vectors
     4.414575608  0.000000000  0.000000000     0.226522341 -0.130782734 -0.092477358
     2.207287804  3.823134623 -0.000000000     0.000000000  0.261565469 -0.092477358
     2.207287804  1.274378208  3.604485890    -0.000000000  0.000000000  0.277432075

  length of vectors
     4.414575608  4.414575608  4.414575608     0.277432075  0.277432075  0.277432075


 
 k-points in units of 2pi/SCALE and weight: k-points                                
   0.00000000  0.00000000  0.00000000       0.005
   0.03686855 -0.02128607 -0.01505152       0.005
   0.07373710 -0.04257213 -0.03010304       0.005
   0.11060565 -0.06385820 -0.04515457       0.005
  -0.07373710  0.04257213  0.03010304       0.005
  -0.03686855  0.02128607  0.01505152       0.005
   0.00000000  0.04257213 -0.01505152       0.005
   0.03686855  0.02128607 -0.03010304       0.005
   0.07373710  0.00000000 -0.04515457       0.005
   0.11060565 -0.02128607 -0.06020609       0.005
  -0.07373710  0.08514427  0.01505152       0.005
  -0.03686855  0.06385820  0.00000000       0.005
   0.00000000  0.08514427 -0.03010304       0.005
   0.03686855  0.06385820 -0.04515457       0.005
   0.07373710  0.04257213 -0.06020609       0.005
   0.11060565  0.02128607 -0.07525761       0.005
  -0.07373710  0.12771640  0.00000000       0.005
  -0.03686855  0.10643034 -0.01505152       0.005
   0.00000000  0.12771640 -0.04515457       0.005
   0.03686855  0.10643034 -0.06020609       0.005
   0.07373710  0.08514427 -0.07525761       0.005
   0.11060565  0.06385820 -0.09030913       0.005
  -0.07373710  0.17028854 -0.01505152       0.005
  -0.03686855  0.14900247 -0.03010304       0.005
  -0.00000000 -0.08514427  0.03010304       0.005
   0.03686855 -0.10643034  0.01505152       0.005
   0.07373710 -0.12771640 -0.00000000       0.005
   0.11060565 -0.14900247 -0.01505152       0.005
  -0.07373710 -0.04257213  0.06020609       0.005
  -0.03686855 -0.06385820  0.04515457       0.005
  -0.00000000 -0.04257213  0.01505152       0.005
   0.03686855 -0.06385820 -0.00000000       0.005
   0.07373710 -0.08514427 -0.01505152       0.005
   0.11060565 -0.10643034 -0.03010304       0.005
  -0.07373710 -0.00000000  0.04515457       0.005
  -0.03686855 -0.02128607  0.03010304       0.005
  -0.00000000  0.00000000  0.04515457       0.005
   0.03686855 -0.02128607  0.03010304       0.005
   0.07373710 -0.04257213  0.01505152       0.005
   0.11060565 -0.06385820 -0.00000000       0.005
  -0.07373710  0.04257213  0.07525761       0.005
  -0.03686855  0.02128607  0.06020609       0.005
  -0.00000000  0.04257213  0.03010304       0.005
   0.03686855  0.02128607  0.01505152       0.005
   0.07373710  0.00000000  0.00000000       0.005
   0.11060565 -0.02128607 -0.01505152       0.005
  -0.07373710  0.08514427  0.06020609       0.005
  -0.03686855  0.06385820  0.04515457       0.005
  -0.00000000  0.08514427  0.01505152       0.005
   0.03686855  0.06385820  0.00000000       0.005
   0.07373710  0.04257213 -0.01505152       0.005
   0.11060565  0.02128607 -0.03010304       0.005
  -0.07373710  0.12771640  0.04515457       0.005
  -0.03686855  0.10643034  0.03010304       0.005
  -0.00000000  0.12771640  0.00000000       0.005
   0.03686855  0.10643034 -0.01505152       0.005
   0.07373710  0.08514427 -0.03010304       0.005
   0.11060565  0.06385820 -0.04515457       0.005
  -0.07373710  0.17028854  0.03010304       0.005
  -0.03686855  0.14900247  0.01505152       0.005
  -0.00000000 -0.08514427  0.07525761       0.005
   0.03686855 -0.10643034  0.06020609       0.005
   0.07373710 -0.12771640  0.04515457       0.005
   0.11060565 -0.14900247  0.03010304       0.005
  -0.07373710 -0.04257213  0.10536066       0.005
  -0.03686855 -0.06385820  0.09030913       0.005
  -0.00000000 -0.04257213  0.06020609       0.005
   0.03686855 -0.06385820  0.04515457       0.005
   0.07373710 -0.08514427  0.03010304       0.005
   0.11060565 -0.10643034  0.01505152       0.005
  -0.07373710 -0.00000000  0.09030913       0.005
  -0.03686855 -0.02128607  0.07525761       0.005
  -0.00000000  0.00000000  0.09030913       0.005
   0.03686855 -0.02128607  0.07525761       0.005
   0.07373710 -0.04257213  0.06020609       0.005
   0.11060565 -0.06385820  0.04515457       0.005
  -0.07373710  0.04257213  0.12041218       0.005
  -0.03686855  0.02128607  0.10536066       0.005
  -0.00000000  0.04257213  0.07525761       0.005
   0.03686855  0.02128607  0.06020609       0.005
   0.07373710  0.00000000  0.04515457       0.005
   0.11060565 -0.02128607  0.03010304       0.005
  -0.07373710  0.08514427  0.10536066       0.005
  -0.03686855  0.06385820  0.09030913       0.005
  -0.00000000  0.08514427  0.06020609       0.005
   0.03686855  0.06385820  0.04515457       0.005
   0.07373710  0.04257213  0.03010304       0.005
   0.11060565  0.02128607  0.01505152       0.005
  -0.07373710  0.12771640  0.09030913       0.005
  -0.03686855  0.10643034  0.07525761       0.005
  -0.00000000  0.12771640  0.04515457       0.005
   0.03686855  0.10643034  0.03010304       0.005
   0.07373710  0.08514427  0.01505152       0.005
   0.11060565  0.06385820  0.00000000       0.005
  -0.07373710  0.17028854  0.07525761       0.005
  -0.03686855  0.14900247  0.06020609       0.005
  -0.00000000 -0.08514427  0.12041218       0.005
   0.03686855 -0.10643034  0.10536066       0.005
   0.07373710 -0.12771640  0.09030913       0.005
   0.11060565 -0.14900247  0.07525761       0.005
  -0.07373710 -0.04257213  0.15051522       0.005
  -0.03686855 -0.06385820  0.13546370       0.005
  -0.00000000 -0.04257213  0.10536066       0.005
   0.03686855 -0.06385820  0.09030913       0.005
   0.07373710 -0.08514427  0.07525761       0.005
   0.11060565 -0.10643034  0.06020609       0.005
  -0.07373710 -0.00000000  0.13546370       0.005
  -0.03686855 -0.02128607  0.12041218       0.005
  -0.00000000  0.00000000  0.13546370       0.005
   0.03686855 -0.02128607  0.12041218       0.005
   0.07373710 -0.04257213  0.10536066       0.005
   0.11060565 -0.06385820  0.09030913       0.005
  -0.07373710  0.04257213  0.16556675       0.005
  -0.03686855  0.02128607  0.15051522       0.005
  -0.00000000  0.04257213  0.12041218       0.005
   0.03686855  0.02128607  0.10536066       0.005
   0.07373710  0.00000000  0.09030913       0.005
   0.11060565 -0.02128607  0.07525761       0.005
  -0.07373710  0.08514427  0.15051522       0.005
  -0.03686855  0.06385820  0.13546370       0.005
  -0.00000000  0.08514427  0.10536066       0.005
   0.03686855  0.06385820  0.09030913       0.005
   0.07373710  0.04257213  0.07525761       0.005
   0.11060565  0.02128607  0.06020609       0.005
  -0.07373710  0.12771640  0.13546370       0.005
  -0.03686855  0.10643034  0.12041218       0.005
  -0.00000000  0.12771640  0.09030913       0.005
   0.03686855  0.10643034  0.07525761       0.005
   0.07373710  0.08514427  0.06020609       0.005
   0.11060565  0.06385820  0.04515457       0.005
  -0.07373710  0.17028854  0.12041218       0.005
  -0.03686855  0.14900247  0.10536066       0.005
  -0.00000000 -0.08514427  0.16556675       0.005
   0.03686855 -0.10643034  0.15051522       0.005
   0.07373710 -0.12771640  0.13546370       0.005
   0.11060565 -0.14900247  0.12041218       0.005
  -0.07373710 -0.04257213  0.19566979       0.005
  -0.03686855 -0.06385820  0.18061827       0.005
  -0.00000000 -0.04257213  0.15051522       0.005
   0.03686855 -0.06385820  0.13546370       0.005
   0.07373710 -0.08514427  0.12041218       0.005
   0.11060565 -0.10643034  0.10536066       0.005
  -0.07373710 -0.00000000  0.18061827       0.005
  -0.03686855 -0.02128607  0.16556675       0.005
   0.00000000 -0.00000000 -0.09030913       0.005
   0.03686855 -0.02128607 -0.10536066       0.005
   0.07373710 -0.04257213 -0.12041218       0.005
   0.11060565 -0.06385820 -0.13546370       0.005
  -0.07373710  0.04257213 -0.06020609       0.005
  -0.03686855  0.02128607 -0.07525761       0.005
   0.00000000  0.04257213 -0.10536066       0.005
   0.03686855  0.02128607 -0.12041218       0.005
   0.07373710  0.00000000 -0.13546370       0.005
   0.11060565 -0.02128607 -0.15051522       0.005
  -0.07373710  0.08514427 -0.07525761       0.005
  -0.03686855  0.06385820 -0.09030913       0.005
   0.00000000  0.08514427 -0.12041218       0.005
   0.03686855  0.06385820 -0.13546370       0.005
   0.07373710  0.04257213 -0.15051522       0.005
   0.11060565  0.02128607 -0.16556675       0.005
  -0.07373710  0.12771640 -0.09030913       0.005
  -0.03686855  0.10643034 -0.10536066       0.005
   0.00000000  0.12771640 -0.13546370       0.005
   0.03686855  0.10643034 -0.15051522       0.005
   0.07373710  0.08514427 -0.16556675       0.005
   0.11060565  0.06385820 -0.18061827       0.005
  -0.07373710  0.17028854 -0.10536066       0.005
  -0.03686855  0.14900247 -0.12041218       0.005
   0.00000000 -0.08514427 -0.06020609       0.005
   0.03686855 -0.10643034 -0.07525761       0.005
   0.07373710 -0.12771640 -0.09030913       0.005
   0.11060565 -0.14900247 -0.10536066       0.005
  -0.07373710 -0.04257213 -0.03010304       0.005
  -0.03686855 -0.06385820 -0.04515457       0.005
   0.00000000 -0.04257213 -0.07525761       0.005
   0.03686855 -0.06385820 -0.09030913       0.005
   0.07373710 -0.08514427 -0.10536066       0.005
   0.11060565 -0.10643034 -0.12041218       0.005
  -0.07373710 -0.00000000 -0.04515457       0.005
  -0.03686855 -0.02128607 -0.06020609       0.005
   0.00000000 -0.00000000 -0.04515457       0.005
   0.03686855 -0.02128607 -0.06020609       0.005
   0.07373710 -0.04257213 -0.07525761       0.005
   0.11060565 -0.06385820 -0.09030913       0.005
  -0.07373710  0.04257213 -0.01505152       0.005
  -0.03686855  0.02128607 -0.03010304       0.005
   0.00000000  0.04257213 -0.06020609       0.005
   0.03686855  0.02128607 -0.07525761       0.005
   0.07373710  0.00000000 -0.09030913       0.005
   0.11060565 -0.02128607 -0.10536066       0.005
  -0.07373710  0.08514427 -0.03010304       0.005
  -0.03686855  0.06385820 -0.04515457       0.005
   0.00000000  0.08514427 -0.07525761       0.005
   0.03686855  0.06385820 -0.09030913       0.005
   0.07373710  0.04257213 -0.10536066       0.005
   0.11060565  0.02128607 -0.12041218       0.005
  -0.07373710  0.12771640 -0.04515457       0.005
  -0.03686855  0.10643034 -0.06020609       0.005
   0.00000000  0.12771640 -0.09030913       0.005
   0.03686855  0.10643034 -0.10536066       0.005
   0.07373710  0.08514427 -0.12041218       0.005
   0.11060565  0.06385820 -0.13546370       0.005
  -0.07373710  0.17028854 -0.06020609       0.005
  -0.03686855  0.14900247 -0.07525761       0.005
   0.00000000 -0.08514427 -0.01505152       0.005
   0.03686855 -0.10643034 -0.03010304       0.005
   0.07373710 -0.12771640 -0.04515457       0.005
   0.11060565 -0.14900247 -0.06020609       0.005
  -0.07373710 -0.04257213  0.01505152       0.005
  -0.03686855 -0.06385820 -0.00000000       0.005
   0.00000000 -0.04257213 -0.03010304       0.005
   0.03686855 -0.06385820 -0.04515457       0.005
   0.07373710 -0.08514427 -0.06020609       0.005
   0.11060565 -0.10643034 -0.07525761       0.005
  -0.07373710 -0.00000000 -0.00000000       0.005
  -0.03686855 -0.02128607 -0.01505152       0.005
 
 k-points in reciprocal lattice and weights: k-points                                
   0.00000000  0.00000000  0.00000000       0.005
   0.16666667  0.00000000  0.00000000       0.005
   0.33333333  0.00000000  0.00000000       0.005
   0.50000000  0.00000000  0.00000000       0.005
  -0.33333333 -0.00000000 -0.00000000       0.005
  -0.16666667 -0.00000000 -0.00000000       0.005
   0.00000000  0.16666667 -0.00000000       0.005
   0.16666667  0.16666667  0.00000000       0.005
   0.33333333  0.16666667  0.00000000       0.005
   0.50000000  0.16666667  0.00000000       0.005
  -0.33333333  0.16666667 -0.00000000       0.005
  -0.16666667  0.16666667 -0.00000000       0.005
   0.00000000  0.33333333  0.00000000       0.005
   0.16666667  0.33333333  0.00000000       0.005
   0.33333333  0.33333333  0.00000000       0.005
   0.50000000  0.33333333  0.00000000       0.005
  -0.33333333  0.33333333 -0.00000000       0.005
  -0.16666667  0.33333333 -0.00000000       0.005
   0.00000000  0.50000000  0.00000000       0.005
   0.16666667  0.50000000  0.00000000       0.005
   0.33333333  0.50000000  0.00000000       0.005
   0.50000000  0.50000000  0.00000000       0.005
  -0.33333333  0.50000000 -0.00000000       0.005
  -0.16666667  0.50000000 -0.00000000       0.005
   0.00000000 -0.33333333  0.00000000       0.005
   0.16666667 -0.33333333  0.00000000       0.005
   0.33333333 -0.33333333  0.00000000       0.005
   0.50000000 -0.33333333  0.00000000       0.005
  -0.33333333 -0.33333333 -0.00000000       0.005
  -0.16666667 -0.33333333 -0.00000000       0.005
   0.00000000 -0.16666667  0.00000000       0.005
   0.16666667 -0.16666667  0.00000000       0.005
   0.33333333 -0.16666667  0.00000000       0.005
   0.50000000 -0.16666667  0.00000000       0.005
  -0.33333333 -0.16666667 -0.00000000       0.005
  -0.16666667 -0.16666667 -0.00000000       0.005
   0.00000000 -0.00000000  0.16666667       0.005
   0.16666667  0.00000000  0.16666667       0.005
   0.33333333  0.00000000  0.16666667       0.005
   0.50000000  0.00000000  0.16666667       0.005
  -0.33333333 -0.00000000  0.16666667       0.005
  -0.16666667 -0.00000000  0.16666667       0.005
   0.00000000  0.16666667  0.16666667       0.005
   0.16666667  0.16666667  0.16666667       0.005
   0.33333333  0.16666667  0.16666667       0.005
   0.50000000  0.16666667  0.16666667       0.005
  -0.33333333  0.16666667  0.16666667       0.005
  -0.16666667  0.16666667  0.16666667       0.005
   0.00000000  0.33333333  0.16666667       0.005
   0.16666667  0.33333333  0.16666667       0.005
   0.33333333  0.33333333  0.16666667       0.005
   0.50000000  0.33333333  0.16666667       0.005
  -0.33333333  0.33333333  0.16666667       0.005
  -0.16666667  0.33333333  0.16666667       0.005
   0.00000000  0.50000000  0.16666667       0.005
   0.16666667  0.50000000  0.16666667       0.005
   0.33333333  0.50000000  0.16666667       0.005
   0.50000000  0.50000000  0.16666667       0.005
  -0.33333333  0.50000000  0.16666667       0.005
  -0.16666667  0.50000000  0.16666667       0.005
  -0.00000000 -0.33333333  0.16666667       0.005
   0.16666667 -0.33333333  0.16666667       0.005
   0.33333333 -0.33333333  0.16666667       0.005
   0.50000000 -0.33333333  0.16666667       0.005
  -0.33333333 -0.33333333  0.16666667       0.005
  -0.16666667 -0.33333333  0.16666667       0.005
  -0.00000000 -0.16666667  0.16666667       0.005
   0.16666667 -0.16666667  0.16666667       0.005
   0.33333333 -0.16666667  0.16666667       0.005
   0.50000000 -0.16666667  0.16666667       0.005
  -0.33333333 -0.16666667  0.16666667       0.005
  -0.16666667 -0.16666667  0.16666667       0.005
  -0.00000000 -0.00000000  0.33333333       0.005
   0.16666667  0.00000000  0.33333333       0.005
   0.33333333  0.00000000  0.33333333       0.005
   0.50000000  0.00000000  0.33333333       0.005
  -0.33333333 -0.00000000  0.33333333       0.005
  -0.16666667 -0.00000000  0.33333333       0.005
  -0.00000000  0.16666667  0.33333333       0.005
   0.16666667  0.16666667  0.33333333       0.005
   0.33333333  0.16666667  0.33333333       0.005
   0.50000000  0.16666667  0.33333333       0.005
  -0.33333333  0.16666667  0.33333333       0.005
  -0.16666667  0.16666667  0.33333333       0.005
  -0.00000000  0.33333333  0.33333333       0.005
   0.16666667  0.33333333  0.33333333       0.005
   0.33333333  0.33333333  0.33333333       0.005
   0.50000000  0.33333333  0.33333333       0.005
  -0.33333333  0.33333333  0.33333333       0.005
  -0.16666667  0.33333333  0.33333333       0.005
   0.00000000  0.50000000  0.33333333       0.005
   0.16666667  0.50000000  0.33333333       0.005
   0.33333333  0.50000000  0.33333333       0.005
   0.50000000  0.50000000  0.33333333       0.005
  -0.33333333  0.50000000  0.33333333       0.005
  -0.16666667  0.50000000  0.33333333       0.005
  -0.00000000 -0.33333333  0.33333333       0.005
   0.16666667 -0.33333333  0.33333333       0.005
   0.33333333 -0.33333333  0.33333333       0.005
   0.50000000 -0.33333333  0.33333333       0.005
  -0.33333333 -0.33333333  0.33333333       0.005
  -0.16666667 -0.33333333  0.33333333       0.005
  -0.00000000 -0.16666667  0.33333333       0.005
   0.16666667 -0.16666667  0.33333333       0.005
   0.33333333 -0.16666667  0.33333333       0.005
   0.50000000 -0.16666667  0.33333333       0.005
  -0.33333333 -0.16666667  0.33333333       0.005
  -0.16666667 -0.16666667  0.33333333       0.005
  -0.00000000 -0.00000000  0.50000000       0.005
   0.16666667  0.00000000  0.50000000       0.005
   0.33333333  0.00000000  0.50000000       0.005
   0.50000000  0.00000000  0.50000000       0.005
  -0.33333333 -0.00000000  0.50000000       0.005
  -0.16666667 -0.00000000  0.50000000       0.005
  -0.00000000  0.16666667  0.50000000       0.005
   0.16666667  0.16666667  0.50000000       0.005
   0.33333333  0.16666667  0.50000000       0.005
   0.50000000  0.16666667  0.50000000       0.005
  -0.33333333  0.16666667  0.50000000       0.005
  -0.16666667  0.16666667  0.50000000       0.005
  -0.00000000  0.33333333  0.50000000       0.005
   0.16666667  0.33333333  0.50000000       0.005
   0.33333333  0.33333333  0.50000000       0.005
   0.50000000  0.33333333  0.50000000       0.005
  -0.33333333  0.33333333  0.50000000       0.005
  -0.16666667  0.33333333  0.50000000       0.005
  -0.00000000  0.50000000  0.50000000       0.005
   0.16666667  0.50000000  0.50000000       0.005
   0.33333333  0.50000000  0.50000000       0.005
   0.50000000  0.50000000  0.50000000       0.005
  -0.33333333  0.50000000  0.50000000       0.005
  -0.16666667  0.50000000  0.50000000       0.005
   0.00000000 -0.33333333  0.50000000       0.005
   0.16666667 -0.33333333  0.50000000       0.005
   0.33333333 -0.33333333  0.50000000       0.005
   0.50000000 -0.33333333  0.50000000       0.005
  -0.33333333 -0.33333333  0.50000000       0.005
  -0.16666667 -0.33333333  0.50000000       0.005
   0.00000000 -0.16666667  0.50000000       0.005
   0.16666667 -0.16666667  0.50000000       0.005
   0.33333333 -0.16666667  0.50000000       0.005
   0.50000000 -0.16666667  0.50000000       0.005
  -0.33333333 -0.16666667  0.50000000       0.005
  -0.16666667 -0.16666667  0.50000000       0.005
   0.00000000  0.00000000 -0.33333333       0.005
   0.16666667  0.00000000 -0.33333333       0.005
   0.33333333  0.00000000 -0.33333333       0.005
   0.50000000  0.00000000 -0.33333333       0.005
  -0.33333333 -0.00000000 -0.33333333       0.005
  -0.16666667 -0.00000000 -0.33333333       0.005
   0.00000000  0.16666667 -0.33333333       0.005
   0.16666667  0.16666667 -0.33333333       0.005
   0.33333333  0.16666667 -0.33333333       0.005
   0.50000000  0.16666667 -0.33333333       0.005
  -0.33333333  0.16666667 -0.33333333       0.005
  -0.16666667  0.16666667 -0.33333333       0.005
   0.00000000  0.33333333 -0.33333333       0.005
   0.16666667  0.33333333 -0.33333333       0.005
   0.33333333  0.33333333 -0.33333333       0.005
   0.50000000  0.33333333 -0.33333333       0.005
  -0.33333333  0.33333333 -0.33333333       0.005
  -0.16666667  0.33333333 -0.33333333       0.005
   0.00000000  0.50000000 -0.33333333       0.005
   0.16666667  0.50000000 -0.33333333       0.005
   0.33333333  0.50000000 -0.33333333       0.005
   0.50000000  0.50000000 -0.33333333       0.005
  -0.33333333  0.50000000 -0.33333333       0.005
  -0.16666667  0.50000000 -0.33333333       0.005
   0.00000000 -0.33333333 -0.33333333       0.005
   0.16666667 -0.33333333 -0.33333333       0.005
   0.33333333 -0.33333333 -0.33333333       0.005
   0.50000000 -0.33333333 -0.33333333       0.005
  -0.33333333 -0.33333333 -0.33333333       0.005
  -0.16666667 -0.33333333 -0.33333333       0.005
   0.00000000 -0.16666667 -0.33333333       0.005
   0.16666667 -0.16666667 -0.33333333       0.005
   0.33333333 -0.16666667 -0.33333333       0.005
   0.50000000 -0.16666667 -0.33333333       0.005
  -0.33333333 -0.16666667 -0.33333333       0.005
  -0.16666667 -0.16666667 -0.33333333       0.005
   0.00000000  0.00000000 -0.16666667       0.005
   0.16666667  0.00000000 -0.16666667       0.005
   0.33333333  0.00000000 -0.16666667       0.005
   0.50000000  0.00000000 -0.16666667       0.005
  -0.33333333 -0.00000000 -0.16666667       0.005
  -0.16666667 -0.00000000 -0.16666667       0.005
   0.00000000  0.16666667 -0.16666667       0.005
   0.16666667  0.16666667 -0.16666667       0.005
   0.33333333  0.16666667 -0.16666667       0.005
   0.50000000  0.16666667 -0.16666667       0.005
  -0.33333333  0.16666667 -0.16666667       0.005
  -0.16666667  0.16666667 -0.16666667       0.005
   0.00000000  0.33333333 -0.16666667       0.005
   0.16666667  0.33333333 -0.16666667       0.005
   0.33333333  0.33333333 -0.16666667       0.005
   0.50000000  0.33333333 -0.16666667       0.005
  -0.33333333  0.33333333 -0.16666667       0.005
  -0.16666667  0.33333333 -0.16666667       0.005
  -0.00000000  0.50000000 -0.16666667       0.005
   0.16666667  0.50000000 -0.16666667       0.005
   0.33333333  0.50000000 -0.16666667       0.005
   0.50000000  0.50000000 -0.16666667       0.005
  -0.33333333  0.50000000 -0.16666667       0.005
  -0.16666667  0.50000000 -0.16666667       0.005
  -0.00000000 -0.33333333 -0.16666667       0.005
   0.16666667 -0.33333333 -0.16666667       0.005
   0.33333333 -0.33333333 -0.16666667       0.005
   0.50000000 -0.33333333 -0.16666667       0.005
  -0.33333333 -0.33333333 -0.16666667       0.005
  -0.16666667 -0.33333333 -0.16666667       0.005
  -0.00000000 -0.16666667 -0.16666667       0.005
   0.16666667 -0.16666667 -0.16666667       0.005
   0.33333333 -0.16666667 -0.16666667       0.005
   0.50000000 -0.16666667 -0.16666667       0.005
  -0.33333333 -0.16666667 -0.16666667       0.005
  -0.16666667 -0.16666667 -0.16666667       0.005
 
 position of ions in fractional coordinates (direct lattice) 
   0.00000000  0.00000000  0.00000000
 
 position of ions in cartesian coordinates  (Angst):
   0.00000000  0.00000000  0.00000000
 
 Euler angles ALPHA=     0.0000000  BETA=     0.0000000

 transformation matrix from SAXIS to cartesian coordinates
 ---------------------------------------------------------
     1.0000000 m_x     0.0000000 m_y     0.0000000 m_z
     0.0000000 m_x     1.0000000 m_y     0.0000000 m_z
     0.0000000 m_x     0.0000000 m_y     1.0000000 m_z

 transformation matrix from cartesian coordinates to SAXIS
 ---------------------------------------------------------
     1.0000000 m_x     0.0000000 m_y     0.0000000 m_z
     0.0000000 m_x     1.0000000 m_y     0.0000000 m_z
     0.0000000 m_x     0.0000000 m_y     1.0000000 m_z




--------------------------------------------------------------------------------------------------------


 k-point  1 :   0.0000 0.0000 0.0000  plane waves:    1450
 k-point  2 :   0.1667 0.0000 0.0000  plane waves:    1424
 k-point  3 :   0.3333 0.0000 0.0000  plane waves:    1490
 k-point  4 :   0.5000 0.0000 0.0000  plane waves:    1436
 k-point  5 :  -0.3333-0.0000-0.0000  plane waves:    1490
 k-point  6 :  -0.1667-0.0000-0.0000  plane waves:    1424
 k-point  7 :   0.0000 0.1667-0.0000  plane waves:    1424
 k-point  8 :   0.1667 0.1667 0.0000  plane waves:    1418
 k-point  9 :   0.3333 0.1667 0.0000  plane waves:    1436
 k-point 10 :   0.5000 0.1667 0.0000  plane waves:    1428
 k-point 11 :  -0.3333 0.1667-0.0000  plane waves:    1434
 k-point 12 :  -0.1667 0.1667-0.0000  plane waves:    1440
 k-point 13 :   0.0000 0.3333 0.0000  plane waves:    1490
 k-point 14 :   0.1667 0.3333 0.0000  plane waves:    1436
 k-point 15 :   0.3333 0.3333 0.0000  plane waves:    1434
 k-point 16 :   0.5000 0.3333 0.0000  plane waves:    1430
 k-point 17 :  -0.3333 0.3333-0.0000  plane waves:    1432
 k-point 18 :  -0.1667 0.3333-0.0000  plane waves:    1434
 k-point 19 :   0.0000 0.5000 0.0000  plane waves:    1436
 k-point 20 :   0.1667 0.5000 0.0000  plane waves:    1428
 k-point 21 :   0.3333 0.5000 0.0000  plane waves:    1430
 k-point 22 :   0.5000 0.5000 0.0000  plane waves:    1448
 k-point 23 :  -0.3333 0.5000-0.0000  plane waves:    1430
 k-point 24 :  -0.1667 0.5000-0.0000  plane waves:    1428
 k-point 25 :   0.0000-0.3333 0.0000  plane waves:    1490
 k-point 26 :   0.1667-0.3333 0.0000  plane waves:    1434
 k-point 27 :   0.3333-0.3333 0.0000  plane waves:    1432
 k-point 28 :   0.5000-0.3333 0.0000  plane waves:    1430
 k-point 29 :  -0.3333-0.3333-0.0000  plane waves:    1434
 k-point 30 :  -0.1667-0.3333-0.0000  plane waves:    1436
 k-point 31 :   0.0000-0.1667 0.0000  plane waves:    1424
 k-point 32 :   0.1667-0.1667 0.0000  plane waves:    1440
 k-point 33 :   0.3333-0.1667 0.0000  plane waves:    1434
 k-point 34 :   0.5000-0.1667 0.0000  plane waves:    1428
 k-point 35 :  -0.3333-0.1667-0.0000  plane waves:    1436
 k-point 36 :  -0.1667-0.1667-0.0000  plane waves:    1418
 k-point 37 :   0.0000-0.0000 0.1667  plane waves:    1424
 k-point 38 :   0.1667 0.0000 0.1667  plane waves:    1418
 k-point 39 :   0.3333 0.0000 0.1667  plane waves:    1436
 k-point 40 :   0.5000 0.0000 0.1667  plane waves:    1428
 k-point 41 :  -0.3333-0.0000 0.1667  plane waves:    1434
 k-point 42 :  -0.1667-0.0000 0.1667  plane waves:    1440
 k-point 43 :   0.0000 0.1667 0.1667  plane waves:    1418
 k-point 44 :   0.1667 0.1667 0.1667  plane waves:    1424
 k-point 45 :   0.3333 0.1667 0.1667  plane waves:    1440
 k-point 46 :   0.5000 0.1667 0.1667  plane waves:    1434
 k-point 47 :  -0.3333 0.1667 0.1667  plane waves:    1428
 k-point 48 :  -0.1667 0.1667 0.1667  plane waves:    1436
 k-point 49 :   0.0000 0.3333 0.1667  plane waves:    1436
 k-point 50 :   0.1667 0.3333 0.1667  plane waves:    1440
 k-point 51 :   0.3333 0.3333 0.1667  plane waves:    1436
 k-point 52 :   0.5000 0.3333 0.1667  plane waves:    1434
 k-point 53 :  -0.3333 0.3333 0.1667  plane waves:    1444
 k-point 54 :  -0.1667 0.3333 0.1667  plane waves:    1434
 k-point 55 :   0.0000 0.5000 0.1667  plane waves:    1428
 k-point 56 :   0.1667 0.5000 0.1667  plane waves:    1434
 k-point 57 :   0.3333 0.5000 0.1667  plane waves:    1434
 k-point 58 :   0.5000 0.5000 0.1667  plane waves:    1430
 k-point 59 :  -0.3333 0.5000 0.1667  plane waves:    1436
 k-point 60 :  -0.1667 0.5000 0.1667  plane waves:    1444
 k-point 61 :  -0.0000-0.3333 0.1667  plane waves:    1434
 k-point 62 :   0.1667-0.3333 0.1667  plane waves:    1428
 k-point 63 :   0.3333-0.3333 0.1667  plane waves:    1444
 k-point 64 :   0.5000-0.3333 0.1667  plane waves:    1436
 k-point 65 :  -0.3333-0.3333 0.1667  plane waves:    1430
 k-point 66 :  -0.1667-0.3333 0.1667  plane waves:    1434
 k-point 67 :  -0.0000-0.1667 0.1667  plane waves:    1440
 k-point 68 :   0.1667-0.1667 0.1667  plane waves:    1436
 k-point 69 :   0.3333-0.1667 0.1667  plane waves:    1434
 k-point 70 :   0.5000-0.1667 0.1667  plane waves:    1444
 k-point 71 :  -0.3333-0.1667 0.1667  plane waves:    1434
 k-point 72 :  -0.1667-0.1667 0.1667  plane waves:    1436
 k-point 73 :  -0.0000-0.0000 0.3333  plane waves:    1490
 k-point 74 :   0.1667 0.0000 0.3333  plane waves:    1436
 k-point 75 :   0.3333 0.0000 0.3333  plane waves:    1434
 k-point 76 :   0.5000 0.0000 0.3333  plane waves:    1430
 k-point 77 :  -0.3333-0.0000 0.3333  plane waves:    1432
 k-point 78 :  -0.1667-0.0000 0.3333  plane waves:    1434
 k-point 79 :  -0.0000 0.1667 0.3333  plane waves:    1436
 k-point 80 :   0.1667 0.1667 0.3333  plane waves:    1440
 k-point 81 :   0.3333 0.1667 0.3333  plane waves:    1436
 k-point 82 :   0.5000 0.1667 0.3333  plane waves:    1434
 k-point 83 :  -0.3333 0.1667 0.3333  plane waves:    1444
 k-point 84 :  -0.1667 0.1667 0.3333  plane waves:    1434
 k-point 85 :  -0.0000 0.3333 0.3333  plane waves:    1434
 k-point 86 :   0.1667 0.3333 0.3333  plane waves:    1436
 k-point 87 :   0.3333 0.3333 0.3333  plane waves:    1490
 k-point 88 :   0.5000 0.3333 0.3333  plane waves:    1434
 k-point 89 :  -0.3333 0.3333 0.3333  plane waves:    1432
 k-point 90 :  -0.1667 0.3333 0.3333  plane waves:    1430
 k-point 91 :   0.0000 0.5000 0.3333  plane waves:    1430
 k-point 92 :   0.1667 0.5000 0.3333  plane waves:    1434
 k-point 93 :   0.3333 0.5000 0.3333  plane waves:    1434
 k-point 94 :   0.5000 0.5000 0.3333  plane waves:    1428
 k-point 95 :  -0.3333 0.5000 0.3333  plane waves:    1444
 k-point 96 :  -0.1667 0.5000 0.3333  plane waves:    1436
 k-point 97 :  -0.0000-0.3333 0.3333  plane waves:    1432
 k-point 98 :   0.1667-0.3333 0.3333  plane waves:    1444
 k-point 99 :   0.3333-0.3333 0.3333  plane waves:    1432
 k-point ** :   0.5000-0.3333 0.3333  plane waves:    1444
 k-point ** :  -0.3333-0.3333 0.3333  plane waves:    1432
 k-point ** :  -0.1667-0.3333 0.3333  plane waves:    1444
 k-point ** :  -0.0000-0.1667 0.3333  plane waves:    1434
 k-point ** :   0.1667-0.1667 0.3333  plane waves:    1434
 k-point ** :   0.3333-0.1667 0.3333  plane waves:    1430
 k-point ** :   0.5000-0.1667 0.3333  plane waves:    1436
 k-point ** :  -0.3333-0.1667 0.3333  plane waves:    1444
 k-point ** :  -0.1667-0.1667 0.3333  plane waves:    1428
 k-point ** :  -0.0000-0.0000 0.5000  plane waves:    1436
 k-point ** :   0.1667 0.0000 0.5000  plane waves:    1428
 k-point ** :   0.3333 0.0000 0.5000  plane waves:    1430
 k-point ** :   0.5000 0.0000 0.5000  plane waves:    1448
 k-point ** :  -0.3333-0.0000 0.5000  plane waves:    1430
 k-point ** :  -0.1667-0.0000 0.5000  plane waves:    1428
 k-point ** :  -0.0000 0.1667 0.5000  plane waves:    1428
 k-point ** :   0.1667 0.1667 0.5000  plane waves:    1434
 k-point ** :   0.3333 0.1667 0.5000  plane waves:    1434
 k-point ** :   0.5000 0.1667 0.5000  plane waves:    1430
 k-point ** :  -0.3333 0.1667 0.5000  plane waves:    1436
 k-point ** :  -0.1667 0.1667 0.5000  plane waves:    1444
 k-point ** :  -0.0000 0.3333 0.5000  plane waves:    1430
 k-point ** :   0.1667 0.3333 0.5000  plane waves:    1434
 k-point ** :   0.3333 0.3333 0.5000  plane waves:    1434
 k-point ** :   0.5000 0.3333 0.5000  plane waves:    1428
 k-point ** :  -0.3333 0.3333 0.5000  plane waves:    1444
 k-point ** :  -0.1667 0.3333 0.5000  plane waves:    1436
 k-point ** :  -0.0000 0.5000 0.5000  plane waves:    1448
 k-point ** :   0.1667 0.5000 0.5000  plane waves:    1430
 k-point ** :   0.3333 0.5000 0.5000  plane waves:    1428
 k-point ** :   0.5000 0.5000 0.5000  plane waves:    1436
 k-point ** :  -0.3333 0.5000 0.5000  plane waves:    1428
 k-point ** :  -0.1667 0.5000 0.5000  plane waves:    1430
 k-point ** :   0.0000-0.3333 0.5000  plane waves:    1430
 k-point ** :   0.1667-0.3333 0.5000  plane waves:    1436
 k-point ** :   0.3333-0.3333 0.5000  plane waves:    1444
 k-point ** :   0.5000-0.3333 0.5000  plane waves:    1428
 k-point ** :  -0.3333-0.3333 0.5000  plane waves:    1434
 k-point ** :  -0.1667-0.3333 0.5000  plane waves:    1434
 k-point ** :   0.0000-0.1667 0.5000  plane waves:    1428
 k-point ** :   0.1667-0.1667 0.5000  plane waves:    1444
 k-point ** :   0.3333-0.1667 0.5000  plane waves:    1436
 k-point ** :   0.5000-0.1667 0.5000  plane waves:    1430
 k-point ** :  -0.3333-0.1667 0.5000  plane waves:    1434
 k-point ** :  -0.1667-0.1667 0.5000  plane waves:    1434
 k-point ** :   0.0000 0.0000-0.3333  plane waves:    1490
 k-point ** :   0.1667 0.0000-0.3333  plane waves:    1434
 k-point ** :   0.3333 0.0000-0.3333  plane waves:    1432
 k-point ** :   0.5000 0.0000-0.3333  plane waves:    1430
 k-point ** :  -0.3333-0.0000-0.3333  plane waves:    1434
 k-point ** :  -0.1667-0.0000-0.3333  plane waves:    1436
 k-point ** :   0.0000 0.1667-0.3333  plane waves:    1434
 k-point ** :   0.1667 0.1667-0.3333  plane waves:    1428
 k-point ** :   0.3333 0.1667-0.3333  plane waves:    1444
 k-point ** :   0.5000 0.1667-0.3333  plane waves:    1436
 k-point ** :  -0.3333 0.1667-0.3333  plane waves:    1430
 k-point ** :  -0.1667 0.1667-0.3333  plane waves:    1434
 k-point ** :   0.0000 0.3333-0.3333  plane waves:    1432
 k-point ** :   0.1667 0.3333-0.3333  plane waves:    1444
 k-point ** :   0.3333 0.3333-0.3333  plane waves:    1432
 k-point ** :   0.5000 0.3333-0.3333  plane waves:    1444
 k-point ** :  -0.3333 0.3333-0.3333  plane waves:    1432
 k-point ** :  -0.1667 0.3333-0.3333  plane waves:    1444
 k-point ** :   0.0000 0.5000-0.3333  plane waves:    1430
 k-point ** :   0.1667 0.5000-0.3333  plane waves:    1436
 k-point ** :   0.3333 0.5000-0.3333  plane waves:    1444
 k-point ** :   0.5000 0.5000-0.3333  plane waves:    1428
 k-point ** :  -0.3333 0.5000-0.3333  plane waves:    1434
 k-point ** :  -0.1667 0.5000-0.3333  plane waves:    1434
 k-point ** :   0.0000-0.3333-0.3333  plane waves:    1434
 k-point ** :   0.1667-0.3333-0.3333  plane waves:    1430
 k-point ** :   0.3333-0.3333-0.3333  plane waves:    1432
 k-point ** :   0.5000-0.3333-0.3333  plane waves:    1434
 k-point ** :  -0.3333-0.3333-0.3333  plane waves:    1490
 k-point ** :  -0.1667-0.3333-0.3333  plane waves:    1436
 k-point ** :   0.0000-0.1667-0.3333  plane waves:    1436
 k-point ** :   0.1667-0.1667-0.3333  plane waves:    1434
 k-point ** :   0.3333-0.1667-0.3333  plane waves:    1444
 k-point ** :   0.5000-0.1667-0.3333  plane waves:    1434
 k-point ** :  -0.3333-0.1667-0.3333  plane waves:    1436
 k-point ** :  -0.1667-0.1667-0.3333  plane waves:    1440
 k-point ** :   0.0000 0.0000-0.1667  plane waves:    1424
 k-point ** :   0.1667 0.0000-0.1667  plane waves:    1440
 k-point ** :   0.3333 0.0000-0.1667  plane waves:    1434
 k-point ** :   0.5000 0.0000-0.1667  plane waves:    1428
 k-point ** :  -0.3333-0.0000-0.1667  plane waves:    1436
 k-point ** :  -0.1667-0.0000-0.1667  plane waves:    1418
 k-point ** :   0.0000 0.1667-0.1667  plane waves:    1440
 k-point ** :   0.1667 0.1667-0.1667  plane waves:    1436
 k-point ** :   0.3333 0.1667-0.1667  plane waves:    1434
 k-point ** :   0.5000 0.1667-0.1667  plane waves:    1444
 k-point ** :  -0.3333 0.1667-0.1667  plane waves:    1434
 k-point ** :  -0.1667 0.1667-0.1667  plane waves:    1436
 k-point ** :   0.0000 0.3333-0.1667  plane waves:    1434
 k-point ** :   0.1667 0.3333-0.1667  plane waves:    1434
 k-point ** :   0.3333 0.3333-0.1667  plane waves:    1430
 k-point ** :   0.5000 0.3333-0.1667  plane waves:    1436
 k-point ** :  -0.3333 0.3333-0.1667  plane waves:    1444
 k-point ** :  -0.1667 0.3333-0.1667  plane waves:    1428
 k-point ** :  -0.0000 0.5000-0.1667  plane waves:    1428
 k-point ** :   0.1667 0.5000-0.1667  plane waves:    1444
 k-point ** :   0.3333 0.5000-0.1667  plane waves:    1436
 k-point ** :   0.5000 0.5000-0.1667  plane waves:    1430
 k-point ** :  -0.3333 0.5000-0.1667  plane waves:    1434
 k-point ** :  -0.1667 0.5000-0.1667  plane waves:    1434
 k-point ** :  -0.0000-0.3333-0.1667  plane waves:    1436
 k-point ** :   0.1667-0.3333-0.1667  plane waves:    1434
 k-point ** :   0.3333-0.3333-0.1667  plane waves:    1444
 k-point ** :   0.5000-0.3333-0.1667  plane waves:    1434
 k-point ** :  -0.3333-0.3333-0.1667  plane waves:    1436
 k-point ** :  -0.1667-0.3333-0.1667  plane waves:    1440
 k-point ** :  -0.0000-0.1667-0.1667  plane waves:    1418
 k-point ** :   0.1667-0.1667-0.1667  plane waves:    1436
 k-point ** :   0.3333-0.1667-0.1667  plane waves:    1428
 k-point ** :   0.5000-0.1667-0.1667  plane waves:    1434
 k-point ** :  -0.3333-0.1667-0.1667  plane waves:    1440
 k-point ** :  -0.1667-0.1667-0.1667  plane waves:    1424

 maximum and minimum number of plane-waves per node :       406      334

 maximum number of plane-waves:      1490
 maximum index in each direction: 
   IXMAX=    6   IYMAX=    6   IZMAX=    6
   IXMIN=   -6   IYMIN=   -6   IZMIN=   -6


 parallel 3D FFT for wavefunctions:
    minimum data exchange during FFTs selected (reduces bandwidth)
 parallel 3D FFT for charge:
    minimum data exchange during FFTs selected (reduces bandwidth)


 total amount of memory used by VASP MPI-rank0    80672. kBytes
=======================================================================

   base      :      30000. kBytes
   nonl-proj :      13046. kBytes
   fftplans  :       6572. kBytes
   grid      :       7375. kBytes
   one-center:        262. kBytes
   wavefun   :      23417. kBytes
 
     INWAV:  cpu time    0.0000: real time    0.0002
 Broyden mixing: mesh for mixing (old mesh)
   NGX = 13   NGY = 13   NGZ = 13
  (NGX  = 56   NGY  = 56   NGZ  = 56)
  gives a total of   2197 points

 initial charge density was supplied:
 charge density of overlapping atoms calculated
 number of electron      18.0000000 magnetization       1.0000000      1.0000000      1.0000000
 keeping initial charge density in first step


--------------------------------------------------------------------------------------------------------


 Maximum index for augmentation-charges        13305 (set IRDMAX)


--------------------------------------------------------------------------------------------------------


 First call to EWALD:  gamma=   0.451
 Maximum number of real-space cells 3x 3x 3
 Maximum number of reciprocal cells 3x 3x 3

    FEWALD:  cpu time    0.0014: real time    0.0014


--------------------------------------- Iteration      1(   1)  ---------------------------------------


    POTLOK:  cpu time    0.0984: real time    0.0992
    SETDIJ:  cpu time    0.1221: real time    0.1221
     EDDAV:  cpu time    6.2188: real time    6.2163
       DOS:  cpu time    0.0020: real time    0.0020
    --------------------------------------------
      LOOP:  cpu time    6.4413: real time    6.4396

 eigenvalue-minimisations  : 16020
 total energy-change (2. order) : 0.1329043E+03  (-0.7220397E+03)
 number of electron      18.0000000 magnetization       1.0000000      1.0000000      1.0000000
 augmentation part       18.0000000 magnetization       1.0000000      1.0000000      1.0000000

 Free energy of the ion-electron system (eV)
  ---------------------------------------------------
  alpha Z        PSCENC =        69.69972675
  Ewald energy   TEWEN  =     -1713.14217088
  -Hartree energ DENC   =      -989.14268962
  -exchange      EXHF   =         0.00000000
  -V(xc)+E(xc)   XCENC  =        55.69598272
  PAW double counting   =      2484.77999756    -2545.35061315
  entropy T*S    EENTRO =        -0.00000223
  eigenvalues    EBANDS =      -260.26004188
  atomic energy  EATOM  =      3030.62410580
  Solvation  Ediel_sol  =         0.00000000
  ---------------------------------------------------
  free energy    TOTEN  =       132.90429506 eV

  energy without entropy =      132.90429730  energy(sigma->0) =      132.90429618


--------------------------------------------------------------------------------------------------------




--------------------------------------- Iteration      1(   2)  ---------------------------------------


     EDDAV:  cpu time    5.9979: real time    5.9963
       DOS:  cpu time    0.0011: real time    0.0011
    --------------------------------------------
      LOOP:  cpu time    5.9990: real time    5.9974

 eigenvalue-minimisations  : 14824
 total energy-change (2. order) :-0.1432502E+03  (-0.1364868E+03)
 number of electron      18.0000000 magnetization       1.0000000      1.0000000      1.0000000
 augmentation part       18.0000000 magnetization       1.0000000      1.0000000      1.0000000

 Free energy of the ion-electron system (eV)
  ---------------------------------------------------
  alpha Z        PSCENC =        69.69972675
  Ewald energy   TEWEN  =     -1713.14217088
  -Hartree energ DENC   =      -989.14268962
  -exchange      EXHF   =         0.00000000
  -V(xc)+E(xc)   XCENC  =        55.69598272
  PAW double counting   =      2484.77999756    -2545.35061315
  entropy T*S    EENTRO =         0.00000000
  eigenvalues    EBANDS =      -403.51021982
  atomic energy  EATOM  =      3030.62410580
  Solvation  Ediel_sol  =         0.00000000
  ---------------------------------------------------
  free energy    TOTEN  =       -10.34588064 eV

  energy without entropy =      -10.34588064  energy(sigma->0) =      -10.34588064


--------------------------------------------------------------------------------------------------------




--------------------------------------- Iteration      1(   3)  ---------------------------------------


     EDDAV:  cpu time    5.9874: real time    5.9846
       DOS:  cpu time    0.0010: real time    0.0010
    --------------------------------------------
      LOOP:  cpu time    5.9884: real time    5.9856

 eigenvalue-minimisations  : 14820
 total energy-change (2. order) :-0.5806331E+02  (-0.5758494E+02)
 number of electron      18.0000000 magnetization       1.0000000      1.0000000      1.0000000
 augmentation part       18.0000000 magnetization       1.0000000      1.0000000      1.0000000

 Free energy of the ion-electron system (eV)
  ---------------------------------------------------
  alpha Z        PSCENC =        69.69972675
  Ewald energy   TEWEN  =     -1713.14217088
  -Hartree energ DENC   =      -989.14268962
  -exchange      EXHF   =         0.00000000
  -V(xc)+E(xc)   XCENC  =        55.69598272
  PAW double counting   =      2484.77999756    -2545.35061315
  entropy T*S    EENTRO =         0.00000000
  eigenvalues    EBANDS =      -461.57353423
  atomic energy  EATOM  =      3030.62410580
  Solvation  Ediel_sol  =         0.00000000
  ---------------------------------------------------
  free energy    TOTEN  =       -68.40919505 eV

  energy without entropy =      -68.40919505  energy(sigma->0) =      -68.40919505


--------------------------------------------------------------------------------------------------------




--------------------------------------- Iteration      1(   4)  ---------------------------------------


     EDDAV:  cpu time    6.5666: real time    6.5632
       DOS:  cpu time    0.0009: real time    0.0009
    --------------------------------------------
      LOOP:  cpu time    6.5675: real time    6.5641

 eigenvalue-minimisations  : 17296
 total energy-change (2. order) :-0.1292540E+02  (-0.1288722E+02)
 number of electron      18.0000000 magnetization       1.0000000      1.0000000      1.0000000
 augmentation part       18.0000000 magnetization       1.0000000      1.0000000      1.0000000

 Free energy of the ion-electron system (eV)
  ---------------------------------------------------
  alpha Z        PSCENC =        69.69972675
  Ewald energy   TEWEN  =     -1713.14217088
  -Hartree energ DENC   =      -989.14268962
  -exchange      EXHF   =         0.00000000
  -V(xc)+E(xc)   XCENC  =        55.69598272
  PAW double counting   =      2484.77999756    -2545.35061315
  entropy T*S    EENTRO =        -0.00000000
  eigenvalues    EBANDS =      -474.49893350
  atomic energy  EATOM  =      3030.62410580
  Solvation  Ediel_sol  =         0.00000000
  ---------------------------------------------------
  free energy    TOTEN  =       -81.33459432 eV

  energy without entropy =      -81.33459432  energy(sigma->0) =      -81.33459432


--------------------------------------------------------------------------------------------------------




--------------------------------------- Iteration      1(   5)  ---------------------------------------


     EDDAV:  cpu time    8.1128: real time    8.1088
       DOS:  cpu time    0.0009: real time    0.0009
    CHARGE:  cpu time    1.4349: real time    1.4342
    MIXING:  cpu time    0.0064: real time    0.0064
    --------------------------------------------
      LOOP:  cpu time    9.5551: real time    9.5504

[...]
    0.000000    4.370919    4.369849    4.371126   -0.041893   -0.028513   -0.048203
    0.688164    0.443141    0.443034    0.443164   -0.004135   -0.002784   -0.004767
    1.376327    0.231262    0.231209    0.231276   -0.001967   -0.001271   -0.002285
    2.064491    0.166313    0.166278    0.166326   -0.001146   -0.000663   -0.001361
    2.752654    0.140403    0.140379    0.140418   -0.000546   -0.000177   -0.000716
    3.440818    0.135661    0.135645    0.135680    0.000336    0.000573    0.000171
    4.128982    0.187023    0.187032    0.187059    0.004756    0.004052    0.004345
    4.817145    0.218311    0.218385    0.218384    0.007733    0.007044    0.007369
    5.505309    0.896105    0.897901    0.896512    0.002619    0.006925    0.004714
    6.193472    0.966889    0.958104    0.958679    0.021870    0.021681    0.017483
    6.881636    1.647064    1.650876    1.668912    0.056767    0.056226    0.053864
    7.569799    4.599904    4.554360    4.546899    0.027092   -0.046726   -0.006730
    8.257963    2.399371    2.384082    2.396187   -0.043909   -0.051426   -0.038060
    8.946127    4.484016    4.476020    4.491631    0.081386    0.042008    0.048217
    9.634290    3.050846    3.042211    3.023313    0.004072    0.012893    0.005386
   10.322454    2.200592    2.189166    2.186970   -0.004560   -0.015571   -0.007986
   11.010617    2.726388    2.702129    2.717314    0.068720    0.028630    0.049951
   11.698781    1.952503    1.936299    1.950629    0.003516   -0.007929   -0.001862
   12.386945    1.217896    1.216700    1.217012   -0.003418   -0.002656    0.000909
   13.075108    0.927011    0.923667    0.927336    0.002913   -0.003100    0.003574
   13.763272    1.092097    1.090028    1.076485    0.004514    0.000859    0.000515
   14.451435    0.758958    0.753958    0.756666    0.003448    0.001595    0.002965
   15.139599    0.316221    0.323921    0.318021    0.003600    0.008791    0.005077
   15.827762    0.154908    0.154765    0.154497    0.004927    0.002529    0.003386
   16.515926    0.415188    0.414204    0.414615    0.000429   -0.001448   -0.000910
   17.204090    0.059437    0.059425    0.059187   -0.000044    0.000128    0.000076
   17.892253    0.012881    0.012878    0.012855    0.000009   -0.000019   -0.000017
   18.580417    0.007784    0.007778    0.007767   -0.000024   -0.000046   -0.000024
   19.268580    0.004390    0.004388    0.004383    0.000065    0.000034    0.000064
   19.956744    0.003193    0.003191    0.003188    0.000039    0.000017    0.000042
   20.644908    0.002541    0.002540    0.002538    0.000004   -0.000008    0.000009
   21.333071    0.002469    0.002469    0.002468   -0.000072   -0.000064   -0.000062
   22.021235    0.007211    0.007210    0.007208    0.000363    0.000257    0.000350
   22.709398    0.016068    0.016074    0.016086    0.000593    0.000427    0.000567
   23.397562    0.014428    0.014411    0.014471   -0.000188   -0.000122   -0.000140
   24.085725    0.008481    0.008376    0.008435   -0.000082   -0.000234   -0.000089
   24.773889    0.016081    0.016078    0.016173    0.000419    0.000377    0.000436
   25.462053    0.010592    0.010552    0.010553   -0.000738   -0.000616   -0.000693
   26.150216    0.020614    0.020626    0.020668    0.000232    0.000213    0.000199
   26.838380    0.011116    0.011134    0.011123    0.000616    0.000456    0.000563
   27.526543    0.005167    0.005214    0.005205   -0.000088   -0.000012   -0.000076
   28.214707    0.007417    0.007383    0.007464   -0.000003   -0.000002    0.000038
   28.902871    0.003091    0.003102    0.003103   -0.000154   -0.000104   -0.000139
   29.591034    0.001375    0.001375    0.001376   -0.000120   -0.000101   -0.000105
   30.279198    0.001953    0.001965    0.001940    0.000033    0.000085    0.000044
   30.967361    0.000352    0.000352    0.000352    0.000006    0.000005    0.000009
   31.655525    0.000261    0.000261    0.000261    0.000015    0.000012    0.000017
   32.343689    0.000221    0.000221    0.000221    0.000016    0.000013    0.000018
   33.031852    0.000195    0.000195    0.000195    0.000017    0.000014    0.000019
   33.720016    0.000177    0.000177    0.000177    0.000016    0.000013    0.000018
   34.408179    0.000164    0.000164    0.000164    0.000016    0.000013    0.000018
   35.096343    0.000155    0.000155    0.000155    0.000016    0.000013    0.000017
   35.784506    0.000149    0.000149    0.000149    0.000015    0.000012    0.000017
   36.472670    0.000145    0.000145    0.000145    0.000015    0.000012    0.000017
   37.160834    0.000143    0.000143    0.000143    0.000015    0.000012    0.000016
   37.848997    0.000144    0.000144    0.000144    0.000015    0.000012    0.000016
   38.537161    0.000147    0.000147    0.000147    0.000015    0.000012    0.000016
   39.225324    0.000153    0.000153    0.000153    0.000016    0.000012    0.000017
   39.913488    0.000164    0.000164    0.000164    0.000016    0.000012    0.000017
   40.601652    0.000179    0.000179    0.000179    0.000017    0.000013    0.000018
   41.289815    0.000201    0.000201    0.000201    0.000019    0.000014    0.000020
   41.977979    0.000237    0.000237    0.000237    0.000022    0.000015    0.000023
   42.666142    0.000299    0.000299    0.000299    0.000028    0.000018    0.000028
   43.354306    0.000437    0.000437    0.000437    0.000041    0.000024    0.000042
   44.042469    0.002230    0.002236    0.002202    0.000007   -0.000008    0.000012
   44.730633    0.002074    0.002075    0.002073    0.000158    0.000090    0.000151
   45.418797    0.014875    0.014880    0.014896   -0.000693   -0.000498   -0.000711
   46.106960    0.013533    0.013563    0.013427   -0.000581   -0.000057   -0.000615
   46.795124    0.015371    0.015572    0.015636    0.000029    0.000257    0.000093
   47.483287    0.014018    0.013645    0.013553    0.000053   -0.000336   -0.000105
   48.171451    0.031521    0.031592    0.031827   -0.000046   -0.000006   -0.000042
   48.859615    0.031903    0.031970    0.032013    0.000750    0.000487    0.000690
   49.547778    0.020607    0.020301    0.020463    0.000063   -0.000064   -0.000023
   50.235942    0.019075    0.019037    0.019015    0.000274    0.000060    0.000199
   50.924105    0.031102    0.031027    0.030971    0.000107   -0.000041    0.000038
   51.612269    0.025161    0.025121    0.025277    0.000659    0.000633    0.000643
   52.300433    0.010433    0.010581    0.010475   -0.000148    0.000019   -0.000101
   52.988596    0.017564    0.017681    0.017546    0.000975    0.000686    0.000854
   53.676760    0.008929    0.008830    0.008564   -0.000278   -0.000207   -0.000195
   54.364923    0.008009    0.007938    0.007908    0.000382    0.000058    0.000330
   55.053087    0.019226    0.019293    0.019293   -0.000039    0.000082   -0.000038
   55.741250    0.015595    0.015575    0.015572   -0.000383   -0.000329   -0.000377
   56.429414    0.003901    0.003830    0.003658    0.000029   -0.000098   -0.000011
   57.117578    0.009942    0.009434    0.009902   -0.000015   -0.000216    0.000052
   57.805741    0.000547    0.000548    0.000545    0.000016   -0.000000    0.000014
   58.493905    0.000233    0.000233    0.000233    0.000006   -0.000000    0.000004
   59.182068    0.000148    0.000148    0.000148    0.000003   -0.000000    0.000002
   59.870232    0.000107    0.000107    0.000107    0.000002   -0.000000    0.000001
   60.558396    0.000082    0.000082    0.000082    0.000002    0.000000    0.000001
   61.246559    0.000066    0.000066    0.000066    0.000002    0.000000    0.000001
   61.934723    0.000054    0.000054    0.000054    0.000001    0.000000    0.000001
   62.622886    0.000045    0.000045    0.000045    0.000001    0.000000    0.000001
   63.311050    0.000039    0.000039    0.000039    0.000001    0.000000    0.000001
   63.999213    0.000033    0.000033    0.000033    0.000001    0.000000    0.000001
   64.687377    0.000029    0.000029    0.000029    0.000001    0.000000    0.000001
   65.375541    0.000026    0.000026    0.000026    0.000001    0.000000    0.000001
   66.063704    0.000023    0.000023    0.000023    0.000001    0.000000    0.000001
   66.751868    0.000020    0.000020    0.000020    0.000001    0.000000    0.000001
   67.440031    0.000018    0.000018    0.000018    0.000001    0.000000    0.000001
   68.128195    0.000016    0.000016    0.000016    0.000001    0.000000    0.000001

  frequency dependent      REAL DIELECTRIC FUNCTION (independent particle, no local field effects) current-current (2nd set in vasprun.xml)
     E(ev)        X           Y           Z          XY          YZ          ZX
  --------------------------------------------------------------------------------------------------------------
    0.000000    2.502974    2.502605    2.503044    0.000212   -0.000163    0.000199
    0.688164    2.513314    2.512945    2.513387    0.000212   -0.000165    0.000199
    1.376327    2.545823    2.545455    2.545906    0.000208   -0.000170    0.000200
    2.064491    2.604412    2.604045    2.604512    0.000197   -0.000183    0.000198
    2.752654    2.697933    2.697573    2.698062    0.000162   -0.000214    0.000180
    3.440818    2.847380    2.847038    2.847557    0.000012   -0.000332    0.000067
    4.128982    3.142467    3.142189    3.142736   -0.003125   -0.002659   -0.002785
    4.817145    3.303353    3.303286    3.303791   -0.000343   -0.000686   -0.000090
    5.505309    3.191234    3.190456    3.189725    0.056827    0.041402    0.055753
    6.193472    4.176334    4.175708    4.177070   -0.006128   -0.008322   -0.005106
    6.881636    4.685081    4.691151    4.696808   -0.047990   -0.045363   -0.041077
    7.569799    2.103503    2.035695    2.025033    0.161531    0.148172    0.146344
    8.257963    2.982096    2.972687    2.988344    0.035883    0.028086    0.031992
    8.946127    0.904192    0.914556    0.912788   -0.092920   -0.049351   -0.088804
    9.634290    0.550233    0.579201    0.581612   -0.001602   -0.003930   -0.015320
   10.322454    0.836663    0.844688    0.844236    0.023732    0.016243    0.023270
   11.010617   -0.925253   -0.963257   -0.936323   -0.039044   -0.055763   -0.045320
   11.698781   -0.461391   -0.448601   -0.460904    0.002767    0.006671    0.001752
   12.386945    0.565357    0.560616    0.556383   -0.023629   -0.012862   -0.021105
   13.075108   -0.785317   -0.784615   -0.788902   -0.004343    0.001772   -0.002624
   13.763272    0.018741    0.018308    0.016157   -0.038356   -0.018429   -0.035329
   14.451435   -0.321775   -0.321490   -0.324668    0.004112    0.003894    0.003377
   15.139599   -0.383034   -0.383510   -0.388193    0.005200    0.002794    0.005100
   15.827762   -0.030177   -0.028896   -0.025338   -0.002024   -0.001815   -0.001079
   16.515926    0.088475    0.089994    0.089946    0.005199    0.003967    0.005069
   17.204090    0.065077    0.065489    0.066076    0.001653    0.001496    0.001614
   17.892253    0.264789    0.265137    0.265357   -0.000192    0.000037   -0.000072
   18.580417    0.373984    0.374291    0.374397   -0.000304   -0.000062   -0.000184
   19.268580    0.454320    0.454588    0.454639   -0.000093    0.000096    0.000000
   19.956744    0.516026    0.516265    0.516285   -0.000085    0.000089   -0.000004
   20.644908    0.566553    0.566768    0.566770   -0.000077    0.000083   -0.000006
   21.333071    0.610131    0.610327    0.610319   -0.000048    0.000095    0.000013
   22.021235    0.645967    0.646146    0.646132    0.000284    0.000337    0.000321
   22.709398    0.680221    0.680382    0.680373    0.000903    0.000789    0.000899
   23.397562    0.696050    0.696150    0.696225    0.000642    0.000571    0.000660
   24.085725    0.723487    0.723810    0.723722    0.000144    0.000308    0.000238
   24.773889    0.728082    0.728196    0.728143    0.000125    0.000101    0.000114
   25.462053    0.763432    0.763532    0.763495    0.000550    0.000482    0.000551
   26.150216    0.758075    0.758194    0.758161   -0.000302   -0.000153   -0.000208
   26.838380    0.772402    0.772443    0.772418   -0.000158   -0.000077   -0.000127
   27.526543    0.785899    0.785994    0.785962   -0.000348   -0.000185   -0.000307
   28.214707    0.798284    0.798292    0.798350   -0.000108   -0.000074   -0.000095
   28.902871    0.811134    0.811219    0.811191   -0.000122   -0.000021   -0.000091
   29.591034    0.820963    0.821042    0.821015   -0.000075    0.000016   -0.000057
   30.279198    0.830319    0.830421    0.830353   -0.000274   -0.000180   -0.000244
   30.967361    0.841015    0.841084    0.841062   -0.000034    0.000026   -0.000012
   31.655525    0.849856    0.849922    0.849901   -0.000030    0.000026   -0.000010
   32.343689    0.857786    0.857850    0.857829   -0.000029    0.000025   -0.000010
   33.031852    0.865045    0.865105    0.865084   -0.000027    0.000024   -0.000009
   33.720016    0.871748    0.871806    0.871786   -0.000026    0.000023   -0.000009
   34.408179    0.877977    0.878032    0.878013   -0.000025    0.000022   -0.000009
   35.096343    0.883791    0.883844    0.883825   -0.000024    0.000021   -0.000008
   35.784506    0.889241    0.889292    0.889274   -0.000023    0.000021   -0.000008
   36.472670    0.894371    0.894419    0.894402   -0.000022    0.000020   -0.000008
   37.160834    0.899218    0.899264    0.899248   -0.000021    0.000019   -0.000007
   37.848997    0.903818    0.903863    0.903847   -0.000020    0.000018   -0.000007
   38.537161    0.908205    0.908248    0.908232   -0.000020    0.000018   -0.000007
   39.225324    0.912412    0.912454    0.912439   -0.000019    0.000017   -0.000007
   39.913488    0.916476    0.916516    0.916501   -0.000018    0.000017   -0.000007
   40.601652    0.920438    0.920476    0.920462   -0.000018    0.000016   -0.000006
   41.289815    0.924349    0.924385    0.924372   -0.000017    0.000016   -0.000006
   41.977979    0.928283    0.928319    0.928306   -0.000017    0.000015   -0.000006
   42.666142    0.932369    0.932404    0.932391   -0.000017    0.000015   -0.000007
   43.354306    0.936904    0.936938    0.936925   -0.000021    0.000013   -0.000011
   44.042469    0.943406    0.943440    0.943429   -0.000251   -0.000040   -0.000273
   44.730633    0.946832    0.946868    0.946853    0.000000    0.000024    0.000008
   45.418797    0.950694    0.950757    0.950697   -0.000854   -0.000432   -0.000827
   46.106960    0.948418    0.948385    0.948309    0.000033    0.000209    0.000152
   46.795124    0.964422    0.964504    0.964541   -0.000437    0.000152   -0.000406
   47.483287    0.940809    0.940790    0.940599    0.000502    0.000058    0.000488
   48.171451    0.969579    0.969653    0.969779   -0.000259    0.000338   -0.000135
   48.859615    0.947143    0.947247    0.947310    0.000294    0.000407    0.000285
   49.547778    0.939187    0.938941    0.939034    0.000473    0.000077    0.000446
   50.235942    0.956634    0.956745    0.956681    0.000482    0.000323    0.000455
   50.924105    0.944555    0.944576    0.944604   -0.000021    0.000100    0.000050
   51.612269    0.934168    0.934259    0.934501   -0.000347    0.000116   -0.000233
   52.300433    0.939577    0.939603    0.939739    0.000082    0.000278    0.000084
   52.988596    0.935325    0.935395    0.935515    0.001068    0.000763    0.000997
   53.676760    0.937002    0.937113    0.937160   -0.000164    0.000064   -0.000124
   54.364923    0.944009    0.944046    0.944136    0.000320    0.000193    0.000290
   55.053087    0.945883    0.945807    0.945752   -0.000145   -0.000053   -0.000129
   55.741250    0.937946    0.937996    0.938019    0.000163    0.000032    0.000134
   56.429414    0.937167    0.937227    0.937306    0.000023    0.000063    0.000004
   57.117578    0.943832    0.943745    0.943515    0.000071   -0.000061   -0.000059
   57.805741    0.945201    0.945220    0.945224   -0.000010    0.000007   -0.000001
   58.493905    0.948802    0.948822    0.948817   -0.000010    0.000008   -0.000004
   59.182068    0.951234    0.951254    0.951247   -0.000009    0.000008   -0.000004
   59.870232    0.953199    0.953218    0.953211   -0.000009    0.000007   -0.000004
   60.558396    0.954892    0.954910    0.954903   -0.000008    0.000007   -0.000004
   61.246559    0.956399    0.956416    0.956410   -0.000008    0.000007   -0.000004
   61.934723    0.957768    0.957785    0.957779   -0.000008    0.000006   -0.000003
   62.622886    0.959029    0.959045    0.959039   -0.000008    0.000006   -0.000003
   63.311050    0.960200    0.960216    0.960210   -0.000007    0.000006   -0.000003
   63.999213    0.961297    0.961312    0.961306   -0.000007    0.000006   -0.000003
   64.687377    0.962329    0.962344    0.962338   -0.000007    0.000006   -0.000003
   65.375541    0.963304    0.963319    0.963313   -0.000007    0.000006   -0.000003
   66.063704    0.964229    0.964243    0.964238   -0.000007    0.000005   -0.000003
   66.751868    0.965109    0.965123    0.965117   -0.000006    0.000005   -0.000003
   67.440031    0.965948    0.965962    0.965957   -0.000006    0.000005   -0.000003
   68.128195    0.966750    0.966764    0.966758   -0.000006    0.000005   -0.000003
 
 The outermost node in the dielectric function lies at epsilon=  16.8


--------------------------------------------------------------------------------------------------------


    OPTICS:  cpu time    0.5222: real time    0.5285
    4ORBIT:  cpu time    0.0000: real time    0.0000

 Spin-Orbit-Coupling matrix elements

 Ion:    1  E_soc:     -3.6547450
 l=   1
     0.0000000    -0.4884199    -0.4884161
    -0.4884199     0.0000000    -0.4884175
    -0.4884161    -0.4884175     0.0000000
 l=   2
     0.0000000    -0.0241410     0.0000000    -0.0241413    -0.0965645
    -0.0241410     0.0000000    -0.0724242    -0.0241407    -0.0241409
     0.0000000    -0.0724242     0.0000000    -0.0724232     0.0000000
    -0.0241413    -0.0241407    -0.0724232     0.0000000    -0.0241412
    -0.0965645    -0.0241409     0.0000000    -0.0241412     0.0000000
 l=   3
     0.0000000    -0.0000000     0.0000000     0.0000000     0.0000000    -0.0000000    -0.0000005
    -0.0000000     0.0000000    -0.0000001     0.0000000    -0.0000001    -0.0000001    -0.0000001
     0.0000000    -0.0000001     0.0000000    -0.0000002    -0.0000001    -0.0000001     0.0000000
     0.0000000     0.0000000    -0.0000002     0.0000000    -0.0000002     0.0000000     0.0000000
     0.0000000    -0.0000001    -0.0000001    -0.0000002     0.0000000    -0.0000001     0.0000000
    -0.0000000    -0.0000001    -0.0000001     0.0000000    -0.0000001     0.0000000    -0.0000001
    -0.0000005    -0.0000001     0.0000000     0.0000000     0.0000000    -0.0000001     0.0000000

 total amount of memory used by VASP MPI-rank0    80672. kBytes
=======================================================================

   base      :      30000. kBytes
   nonl-proj :      13046. kBytes
   fftplans  :       6572. kBytes
   grid      :       7375. kBytes
   one-center:        262. kBytes
   wavefun   :      23417. kBytes
 
  
  
 General timing and accounting informations for this job:
 ========================================================
  
                  Total CPU time used (sec):      424.740
                            User time (sec):      422.178
                          System time (sec):        2.562
                         Elapsed time (sec):      425.246
  
                   Maximum memory used (kb):      235324.
                   Average memory used (kb):           0.
  
                          Minor page faults:       113564
                          Major page faults:            0
                 Voluntary context switches:         2072
