   1   1   0   0
  0.8549903E+02  0.4944914E-09  0.4944914E-09  0.4944914E-09  0.2000000E-16
  1.000000000000000E-004
  CAR 
 Og_FCC                                  
     14.50738444    -32.78697759  301     -1.43108983      1.00000000
    -32.787  0.0000E+00  0.0000E+00
    -32.629  0.0000E+00  0.0000E+00
    -32.472  0.0000E+00  0.0000E+00
    -32.314  0.0000E+00  0.0000E+00
    -32.156  0.0000E+00  0.0000E+00
    -31.999  0.0000E+00  0.0000E+00
    -31.841  0.0000E+00  0.0000E+00
    -31.683  0.0000E+00  0.0000E+00
    -31.526 -0.1415E-33 -0.2230E-34
    -31.368 -0.1467E-22 -0.2312E-23
    -31.210 -0.9772E-14 -0.1541E-14
    -31.053 -0.4182E-07 -0.6592E-08
    -30.895 -0.9975E-03 -0.1573E-03
    -30.738 -0.3316E-01 -0.5385E-02
    -30.580  0.1203E+01  0.1843E+00
    -30.422  0.1318E+00  0.2051E+00
    -30.265 -0.6408E-02  0.2041E+00
    -30.107 -0.1264E-05  0.2041E+00
    -29.949 -0.1267E-11  0.2041E+00
    -29.792  0.0000E+00  0.2041E+00
    -29.634  0.0000E+00  0.2041E+00
    -29.476  0.0000E+00  0.2041E+00
    -29.319  0.0000E+00  0.2041E+00
    -29.161  0.0000E+00  0.2041E+00
    -29.003  0.0000E+00  0.2041E+00
    -28.846  0.0000E+00  0.2041E+00
    -28.688  0.0000E+00  0.2041E+00
    -28.530  0.0000E+00  0.2041E+00
    -28.373  0.0000E+00  0.2041E+00
    -28.215  0.0000E+00  0.2041E+00
    -28.058  0.0000E+00  0.2041E+00
    -27.900  0.0000E+00  0.2041E+00
    -27.742  0.0000E+00  0.2041E+00
    -27.585  0.0000E+00  0.2041E+00
    -27.427  0.0000E+00  0.2041E+00
    -27.269  0.0000E+00  0.2041E+00
    -27.112  0.0000E+00  0.2041E+00
    -26.954  0.0000E+00  0.2041E+00
    -26.796  0.0000E+00  0.2041E+00
    -26.639  0.0000E+00  0.2041E+00
    -26.481  0.0000E+00  0.2041E+00
    -26.323  0.0000E+00  0.2041E+00
    -26.166  0.0000E+00  0.2041E+00
    -26.008  0.0000E+00  0.2041E+00
    -25.850  0.0000E+00  0.2041E+00
    -25.693  0.0000E+00  0.2041E+00
    -25.535  0.0000E+00  0.2041E+00
    -25.378  0.0000E+00  0.2041E+00
    -25.220  0.0000E+00  0.2041E+00
    -25.062  0.0000E+00  0.2041E+00
    -24.905  0.0000E+00  0.2041E+00
    -24.747  0.0000E+00  0.2041E+00
    -24.589  0.0000E+00  0.2041E+00
    -24.432 -0.1293E-31  0.2041E+00
    -24.274 -0.3988E-21  0.2041E+00
    -24.116 -0.8174E-13  0.2041E+00
    -23.959 -0.1110E-06  0.2041E+00
    -23.801 -0.8185E-03  0.2040E+00
    -23.643  0.1265E-01  0.2059E+00
    -23.486  0.2492E+00  0.2452E+00
    -23.328 -0.1814E-02  0.2450E+00
    -23.170 -0.3572E-03  0.2449E+00
    -23.013 -0.2391E-07  0.2449E+00
    -22.855 -0.8855E-14  0.2449E+00
    -22.698  0.0000E+00  0.2449E+00
    -22.540  0.0000E+00  0.2449E+00
    -22.382  0.0000E+00  0.2449E+00
    -22.225  0.0000E+00  0.2449E+00
    -22.067  0.0000E+00  0.2449E+00
    -21.909  0.0000E+00  0.2449E+00
    -21.752  0.0000E+00  0.2449E+00
    -21.594  0.0000E+00  0.2449E+00
    -21.436  0.0000E+00  0.2449E+00
    -21.279  0.0000E+00  0.2449E+00
    -21.121  0.0000E+00  0.2449E+00
    -20.963  0.0000E+00  0.2449E+00
    -20.806  0.0000E+00  0.2449E+00
    -20.648  0.0000E+00  0.2449E+00
    -20.490  0.0000E+00  0.2449E+00
    -20.333  0.0000E+00  0.2449E+00
    -20.175  0.0000E+00  0.2449E+00
    -20.017  0.0000E+00  0.2449E+00
    -19.860  0.0000E+00  0.2449E+00
    -19.702  0.0000E+00  0.2449E+00
    -19.545  0.0000E+00  0.2449E+00
    -19.387  0.0000E+00  0.2449E+00
    -19.229  0.0000E+00  0.2449E+00
    -19.072  0.0000E+00  0.2449E+00
    -18.914  0.0000E+00  0.2449E+00
    -18.756  0.0000E+00  0.2449E+00
    -18.599  0.0000E+00  0.2449E+00
    -18.441  0.0000E+00  0.2449E+00
    -18.283  0.0000E+00  0.2449E+00
    -18.126  0.0000E+00  0.2449E+00
    -17.968  0.0000E+00  0.2449E+00
    -17.810  0.0000E+00  0.2449E+00
    -17.653  0.0000E+00  0.2449E+00
    -17.495  0.0000E+00  0.2449E+00
    -17.337  0.0000E+00  0.2449E+00
    -17.180  0.0000E+00  0.2449E+00
    -17.022  0.0000E+00  0.2449E+00
    -16.865  0.0000E+00  0.2449E+00
    -16.707  0.0000E+00  0.2449E+00
    -16.549  0.0000E+00  0.2449E+00
    -16.392  0.0000E+00  0.2449E+00
    -16.234  0.0000E+00  0.2449E+00
    -16.076  0.0000E+00  0.2449E+00
    -15.919  0.0000E+00  0.2449E+00
    -15.761  0.0000E+00  0.2449E+00
    -15.603  0.0000E+00  0.2449E+00
    -15.446  0.0000E+00  0.2449E+00
    -15.288  0.0000E+00  0.2449E+00
    -15.130  0.0000E+00  0.2449E+00
    -14.973  0.0000E+00  0.2449E+00
    -14.815  0.0000E+00  0.2449E+00
    -14.657  0.0000E+00  0.2449E+00
    -14.500  0.0000E+00  0.2449E+00
    -14.342  0.0000E+00  0.2449E+00
    -14.185  0.0000E+00  0.2449E+00
    -14.027  0.0000E+00  0.2449E+00
    -13.869  0.0000E+00  0.2449E+00
    -13.712  0.0000E+00  0.2449E+00
    -13.554  0.0000E+00  0.2449E+00
    -13.396  0.0000E+00  0.2449E+00
    -13.239  0.0000E+00  0.2449E+00
    -13.081  0.0000E+00  0.2449E+00
    -12.923  0.0000E+00  0.2449E+00
    -12.766  0.0000E+00  0.2449E+00
    -12.608  0.0000E+00  0.2449E+00
    -12.450  0.0000E+00  0.2449E+00
    -12.293  0.0000E+00  0.2449E+00
    -12.135  0.0000E+00  0.2449E+00
    -11.977  0.0000E+00  0.2449E+00
    -11.820  0.0000E+00  0.2449E+00
    -11.662  0.0000E+00  0.2449E+00
    -11.505  0.0000E+00  0.2449E+00
    -11.347  0.0000E+00  0.2449E+00
    -11.189  0.0000E+00  0.2449E+00
    -11.032  0.0000E+00  0.2449E+00
    -10.874  0.0000E+00  0.2449E+00
    -10.716  0.0000E+00  0.2449E+00
    -10.559  0.0000E+00  0.2449E+00
    -10.401  0.0000E+00  0.2449E+00
    -10.243  0.0000E+00  0.2449E+00
    -10.086  0.0000E+00  0.2449E+00
     -9.928  0.0000E+00  0.2449E+00
     -9.770  0.0000E+00  0.2449E+00
     -9.613  0.0000E+00  0.2449E+00
     -9.455  0.0000E+00  0.2449E+00
     -9.297  0.0000E+00  0.2449E+00
     -9.140  0.0000E+00  0.2449E+00
     -8.982  0.0000E+00  0.2449E+00
     -8.825  0.0000E+00  0.2449E+00
     -8.667  0.0000E+00  0.2449E+00
     -8.509  0.0000E+00  0.2449E+00
     -8.352  0.0000E+00  0.2449E+00
     -8.194  0.0000E+00  0.2449E+00
     -8.036  0.0000E+00  0.2449E+00
     -7.879  0.0000E+00  0.2449E+00
     -7.721  0.0000E+00  0.2449E+00
     -7.563  0.0000E+00  0.2449E+00
     -7.406  0.0000E+00  0.2449E+00
     -7.248  0.0000E+00  0.2449E+00
     -7.090  0.0000E+00  0.2449E+00
     -6.933  0.0000E+00  0.2449E+00
     -6.775  0.0000E+00  0.2449E+00
     -6.617  0.0000E+00  0.2449E+00
     -6.460  0.0000E+00  0.2449E+00
     -6.302  0.0000E+00  0.2449E+00
     -6.144  0.0000E+00  0.2449E+00
     -5.987  0.0000E+00  0.2449E+00
     -5.829  0.0000E+00  0.2449E+00
     -5.672  0.0000E+00  0.2449E+00
     -5.514  0.0000E+00  0.2449E+00
     -5.356  0.0000E+00  0.2449E+00
     -5.199  0.0000E+00  0.2449E+00
     -5.041  0.0000E+00  0.2449E+00
     -4.883  0.0000E+00  0.2449E+00
     -4.726  0.0000E+00  0.2449E+00
     -4.568  0.0000E+00  0.2449E+00
     -4.410  0.0000E+00  0.2449E+00
     -4.253  0.0000E+00  0.2449E+00
     -4.095  0.0000E+00  0.2449E+00
     -3.937  0.0000E+00  0.2449E+00
     -3.780 -0.1166E-38  0.2449E+00
     -3.622 -0.3056E-27  0.2449E+00
     -3.464 -0.5321E-18  0.2449E+00
     -3.307 -0.5723E-11  0.2449E+00
     -3.149 -0.3866E-06  0.2449E+00
     -2.992 -0.1729E-03  0.2449E+00
     -2.834  0.1982E-02  0.2452E+00
     -2.676  0.4866E-01  0.2529E+00
     -2.519  0.1288E+00  0.2732E+00
     -2.361  0.4962E-01  0.2810E+00
     -2.203  0.5318E-01  0.2894E+00
     -2.046  0.6196E-01  0.2991E+00
     -1.888  0.1015E+00  0.3151E+00
     -1.730  0.1553E+00  0.3396E+00
     -1.573  0.1356E+00  0.3610E+00
     -1.415  0.4096E-01  0.3675E+00
     -1.257 -0.6487E-03  0.3674E+00
     -1.100 -0.5186E-04  0.3673E+00
     -0.942 -0.7557E-08  0.3673E+00
     -0.784 -0.7611E-14  0.3673E+00
     -0.627  0.0000E+00  0.3673E+00
     -0.469  0.0000E+00  0.3673E+00
     -0.312  0.0000E+00  0.3673E+00
     -0.154  0.0000E+00  0.3673E+00
      0.004  0.0000E+00  0.3673E+00
      0.161  0.0000E+00  0.3673E+00
      0.319  0.0000E+00  0.3673E+00
      0.477  0.0000E+00  0.3673E+00
      0.634 -0.2565E-40  0.3673E+00
      0.792 -0.1023E-28  0.3673E+00
      0.950 -0.2711E-19  0.3673E+00
      1.107 -0.4446E-12  0.3673E+00
      1.265 -0.4393E-07  0.3673E+00
      1.423 -0.1531E-04  0.3673E+00
      1.580  0.3275E-03  0.3674E+00
      1.738  0.2020E-03  0.3674E+00
      1.896 -0.1457E-03  0.3674E+00
      2.053  0.2858E-02  0.3679E+00
      2.211  0.3443E-02  0.3684E+00
      2.368  0.9574E-03  0.3685E+00
      2.526 -0.2474E-03  0.3685E+00
      2.684  0.5284E-02  0.3693E+00
      2.841  0.7424E-03  0.3695E+00
      2.999  0.1439E-01  0.3717E+00
      3.157  0.2141E-02  0.3721E+00
      3.314 -0.3649E-03  0.3720E+00
      3.472  0.5883E-02  0.3729E+00
      3.630  0.1406E-01  0.3752E+00
      3.787  0.2448E-01  0.3790E+00
      3.945  0.2194E-02  0.3794E+00
      4.103  0.2865E-01  0.3839E+00
      4.260  0.1078E-01  0.3856E+00
      4.418  0.1525E-01  0.3880E+00
      4.576  0.3642E-01  0.3937E+00
      4.733  0.3231E-01  0.3988E+00
      4.891  0.1968E-01  0.4019E+00
      5.049  0.4396E-02  0.4026E+00
      5.206  0.2058E-01  0.4059E+00
      5.364  0.1101E-01  0.4076E+00
      5.521  0.2551E-02  0.4080E+00
      5.679  0.1509E-01  0.4104E+00
      5.837  0.1239E-01  0.4123E+00
      5.994  0.3052E-01  0.4171E+00
      6.152  0.4787E-01  0.4247E+00
      6.310  0.5813E-01  0.4338E+00
      6.467  0.1282E-01  0.4359E+00
      6.625  0.5249E-01  0.4441E+00
      6.783  0.1127E+00  0.4619E+00
      6.940  0.3808E-01  0.4679E+00
      7.098  0.1563E-01  0.4704E+00
      7.256  0.1452E-01  0.4727E+00
      7.413  0.4266E-01  0.4794E+00
      7.571  0.3829E-01  0.4854E+00
      7.729  0.4961E-01  0.4933E+00
      7.886  0.4330E-01  0.5001E+00
      8.044  0.7009E-01  0.5111E+00
      8.201  0.4505E-01  0.5182E+00
      8.359  0.1765E-01  0.5210E+00
      8.517  0.3989E-01  0.5273E+00
      8.674  0.3961E-01  0.5335E+00
      8.832  0.2693E-01  0.5378E+00
      8.990  0.2999E-01  0.5425E+00
      9.147  0.1193E-01  0.5444E+00
      9.305  0.7280E-01  0.5559E+00
      9.463  0.7984E-01  0.5685E+00
      9.620  0.3069E-01  0.5733E+00
      9.778  0.3341E-01  0.5786E+00
      9.936  0.5126E-01  0.5866E+00
     10.093  0.3639E-01  0.5924E+00
     10.251  0.3722E-01  0.5983E+00
     10.409  0.5754E-01  0.6073E+00
     10.566  0.2388E-01  0.6111E+00
     10.724  0.3898E-01  0.6172E+00
     10.881  0.3279E-01  0.6224E+00
     11.039  0.4383E-01  0.6293E+00
     11.197  0.5653E-01  0.6382E+00
     11.354  0.1995E-01  0.6414E+00
     11.512  0.1709E-01  0.6441E+00
     11.670  0.2594E-01  0.6482E+00
     11.827 -0.1030E-02  0.6480E+00
     11.985  0.1038E-01  0.6496E+00
     12.143  0.7793E-02  0.6509E+00
     12.300  0.8870E-02  0.6523E+00
     12.458  0.5270E-02  0.6531E+00
     12.616 -0.1510E-03  0.6531E+00
     12.773 -0.4886E-05  0.6531E+00
     12.931 -0.2114E-09  0.6531E+00
     13.089 -0.5120E-16  0.6531E+00
     13.246  0.0000E+00  0.6531E+00
     13.404  0.0000E+00  0.6531E+00
     13.561  0.0000E+00  0.6531E+00
     13.719  0.0000E+00  0.6531E+00
     13.877  0.0000E+00  0.6531E+00
     14.034  0.0000E+00  0.6531E+00
     14.192  0.0000E+00  0.6531E+00
     14.350  0.0000E+00  0.6531E+00
     14.507  0.0000E+00  0.6531E+00
