    1    1   49    1
  0.8549903E+02  0.4944914E-09  0.4944914E-09  0.4944914E-09  0.2000000E-16
  1.000000000000000E-004
  CAR 
 Og_FCC                                  
     18     29     16
 
  0.0000000E+00  0.0000000E+00  0.0000000E+00  0.1953125E-02
    1      -30.636851   1.000000
    2      -30.636851   1.000000
    3      -30.636851   1.000000
    4      -30.636476   1.000000
    5      -30.636476   1.000000
    6      -23.592316   1.000000
    7       -1.459083   0.726922
    8       -1.459083   0.726921
    9       -1.459083   0.726921
   10        1.566256   0.000000
   11        7.662770   0.000000
   12        7.662770   0.000000
   13        7.662770   0.000000
   14        8.636396   0.000000
   15        9.827619   0.000000
   16        9.827640   0.000000
 
  0.1250000E+00 -0.1284580E-16 -0.6938894E-17  0.1562500E-01
    1      -30.636799   1.000000
    2      -30.636764   1.000000
    3      -30.636764   1.000000
    4      -30.636435   1.000000
    5      -30.636435   1.000000
    6      -23.589683   1.000000
    7       -1.767198   1.000011
    8       -1.485790   0.894812
    9       -1.485790   0.894812
   10        2.029123   0.000000
   11        7.102199   0.000000
   12        7.775718   0.000000
   13        7.775718   0.000000
   14        9.188173   0.000000
   15        9.188173   0.000000
   16        9.353150   0.000000
 
  0.2500000E+00 -0.2569159E-16 -0.1387779E-16  0.1562500E-01
    1      -30.636733   1.000000
    2      -30.636733   1.000000
    3      -30.636660   1.000000
    4      -30.636183   1.000000
    5      -30.636183   1.000000
    6      -23.583462   1.000000
    7       -2.309741   1.000000
    8       -1.548624   1.035056
    9       -1.548624   1.035056
   10        2.914279   0.000000
   11        6.766213   0.000000
   12        7.752866   0.000000
   13        7.752866   0.000000
   14        8.924757   0.000000
   15        9.156117   0.000000
   16        9.156117   0.000000
 
  0.3750000E+00 -0.2465960E-16  0.1387779E-16  0.1562500E-01
    1      -30.636794   1.000000
    2      -30.636794   1.000000
    3      -30.636505   1.000000
    4      -30.635836   1.000000
    5      -30.635836   1.000000
    6      -23.577193   1.000000
    7       -2.715932   1.000000
    8       -1.609318   1.015122
    9       -1.609318   1.015122
   10        3.524402   0.000000
   11        7.133668   0.000000
   12        7.475281   0.000000
   13        7.475281   0.000000
   14        8.611356   0.000000
   15       10.014197   0.000000
   16       10.014197   0.000000
 
  0.5000000E+00 -0.5138319E-16 -0.2775558E-16  0.7812500E-02
    1      -30.636826   1.000000
    2      -30.636826   1.000000
    3      -30.636460   1.000000
    4      -30.635697   1.000000
    5      -30.635697   1.000000
    6      -23.574635   1.000000
    7       -2.861094   1.000000
    8       -1.633877   1.007298
    9       -1.633877   1.007298
   10        3.683870   0.000000
   11        7.354263   0.000000
   12        7.354263   0.000000
   13        7.482003   0.000000
   14        8.905169   0.000000
   15       10.665486   0.000000
   16       10.997971   0.000000
 
  0.1250000E+00  0.1250000E+00  0.0000000E+00  0.1171875E-01
    1      -30.636906   1.000000
    2      -30.636645   1.000000
    3      -30.636645   1.000000
    4      -30.636525   1.000000
    5      -30.636380   1.000000
    6      -23.588831   1.000000
    7       -1.776828   1.000006
    8       -1.539320   1.031695
    9       -1.539320   1.031695
   10        2.189032   0.000000
   11        6.874960   0.000000
   12        7.905709   0.000000
   13        7.905709   0.000000
   14        8.281281   0.000000
   15        9.733429   0.000000
   16        9.964465   0.000000
 
  0.2500000E+00  0.1250000E+00 -0.1387779E-16  0.4687500E-01
    1      -30.636873   1.000000
    2      -30.636608   1.000000
    3      -30.636547   1.000000
    4      -30.636344   1.000000
    5      -30.636154   1.000000
    6      -23.583821   1.000000
    7       -2.182276   1.000000
    8       -1.619510   1.011411
    9       -1.602209   1.018062
   10        2.955746   0.000000
   11        6.505194   0.000000
   12        7.391280   0.000000
   13        8.067639   0.000000
   14        8.488797   0.000000
   15        9.843753   0.000000
   16       10.003300   0.000000
 
  0.3750000E+00  0.1250000E+00  0.2775558E-16  0.4687500E-01
    1      -30.636815   1.000000
    2      -30.636600   1.000000
    3      -30.636539   1.000000
    4      -30.636034   1.000000
    5      -30.635809   1.000000
    6      -23.577563   1.000000
    7       -2.583830   1.000000
    8       -1.698660   1.000510
    9       -1.678883   1.001277
   10        3.721233   0.000000
   11        6.627587   0.000000
   12        6.916530   0.000000
   13        7.867851   0.000000
   14        9.275649   0.000000
   15        9.658635   0.000000
   16       10.447814   0.000000
 
  0.5000000E+00  0.1250000E+00  0.2775558E-16  0.4687500E-01
    1      -30.636823   1.000000
    2      -30.636648   1.000000
    3      -30.636392   1.000000
    4      -30.635817   1.000000
    5      -30.635674   1.000000
    6      -23.573734   1.000000
    7       -2.787215   1.000000
    8       -1.790594   1.000002
    9       -1.685279   1.000958
   10        4.046621   0.000000
   11        6.565341   0.000000
   12        7.565218   0.000000
   13        7.629723   0.000000
   14        9.300952   0.000000
   15        9.935642   0.000000
   16       11.022256   0.000000
 
 -0.3750000E+00  0.1250000E+00  0.0000000E+00  0.4687500E-01
    1      -30.636790   1.000000
    2      -30.636654   1.000000
    3      -30.636409   1.000000
    4      -30.635844   1.000000
    5      -30.635760   1.000000
    6      -23.574600   1.000000
    7       -2.740393   1.000000
    8       -1.822379   1.000000
    9       -1.635529   1.006908
   10        3.997935   0.000000
   11        6.655583   0.000000
   12        7.359560   0.000000
   13        7.594347   0.000000
   14        9.524040   0.000000
   15        9.782720   0.000000
   16       10.179379   0.000000
 
 -0.2500000E+00  0.1250000E+00  0.0000000E+00  0.4687500E-01
    1      -30.636725   1.000000
    2      -30.636615   1.000000
    3      -30.636579   1.000000
    4      -30.636220   1.000000
    5      -30.635914   1.000000
    6      -23.579654   1.000000
    7       -2.462571   1.000000
    8       -1.767167   1.000011
    9       -1.556254   1.035350
   10        3.501779   0.000000
   11        6.665588   0.000000
   12        7.089535   0.000000
   13        7.817899   0.000000
   14        8.736152   0.000000
   15        9.725393   0.000000
   16       10.321802   0.000000
 
 -0.1250000E+00  0.1250000E+00 -0.1561471E-17  0.2343750E-01
    1      -30.636753   1.000000
    2      -30.636686   1.000000
    3      -30.636630   1.000000
    4      -30.636481   1.000000
    5      -30.636212   1.000000
    6      -23.585889   1.000000
    7       -2.061322   1.000000
    8       -1.629869   1.008315
    9       -1.493080   0.928743
   10        2.639122   0.000000
   11        6.739335   0.000000
   12        7.627902   0.000000
   13        7.977427   0.000000
   14        8.428558   0.000000
   15        9.308151   0.000000
   16       10.097611   0.000000
 
  0.2500000E+00  0.2500000E+00  0.0000000E+00  0.1171875E-01
    1      -30.637052   1.000000
    2      -30.636637   1.000000
    3      -30.636168   1.000000
    4      -30.636159   1.000000
    5      -30.636159   1.000000
    6      -23.580542   1.000000
    7       -2.287367   1.000000
    8       -1.722675   1.000148
    9       -1.722675   1.000148
   10        3.451742   0.000000
   11        6.057891   0.000000
   12        6.986991   0.000000
   13        8.568244   0.000000
   14        8.568244   0.000000
   15       10.373076   0.000000
   16       11.442856   0.000000
 
  0.3750000E+00  0.2500000E+00  0.2775558E-16  0.4687500E-01
    1      -30.637006   1.000000
    2      -30.636650   1.000000
    3      -30.636209   1.000000
    4      -30.635904   1.000000
    5      -30.635778   1.000000
    6      -23.575487   1.000000
    7       -2.523285   1.000000
    8       -1.852795   1.000000
    9       -1.797369   1.000001
   10        4.101798   0.000000
   11        5.944144   0.000000
   12        6.649727   0.000000
   13        8.672603   0.000000
   14        9.246447   0.000000
   15       10.859367   0.000000
   16       11.231433   0.000000
 
  0.5000000E+00  0.2500000E+00 -0.2775558E-16  0.4687500E-01
    1      -30.636899   1.000000
    2      -30.636464   1.000000
    3      -30.636266   1.000000
    4      -30.635840   1.000000
    5      -30.635631   1.000000
    6      -23.571659   1.000000
    7       -2.646230   1.000000
    8       -2.051795   1.000000
    9       -1.804072   1.000001
   10        4.607192   0.000000
   11        6.168167   0.000000
   12        6.733210   0.000000
   13        8.393087   0.000000
   14        9.263511   0.000000
   15       11.112644   0.000000
   16       11.153277   0.000000
 
 -0.3750000E+00  0.2500000E+00  0.2775558E-16  0.4687500E-01
    1      -30.636841   1.000000
    2      -30.636305   1.000000
    3      -30.636176   1.000000
    4      -30.635943   1.000000
    5      -30.635799   1.000000
    6      -23.571310   1.000000
    7       -2.611286   1.000000
    8       -2.195225   1.000000
    9       -1.739464   1.000058
   10        4.816994   0.000000
   11        6.115435   0.000000
   12        7.298983   0.000000
   13        8.158382   0.000000
   14        8.523009   0.000000
   15        9.854344   0.000000
   16       11.097683   0.000000
 
 -0.2500000E+00  0.2500000E+00 -0.3122941E-17  0.2343750E-01
    1      -30.636762   1.000000
    2      -30.636363   1.000000
    3      -30.636347   1.000000
    4      -30.636138   1.000000
    5      -30.635842   1.000000
    6      -23.574609   1.000000
    7       -2.543594   1.000000
    8       -2.083293   1.000000
    9       -1.637201   1.006530
   10        4.405536   0.000000
   11        6.365537   0.000000
   12        6.716394   0.000000
   13        8.033561   0.000000
   14        8.909882   0.000000
   15       10.043535   0.000000
   16       11.263841   0.000000
 
  0.3750000E+00  0.3750000E+00  0.2775558E-16  0.1171875E-01
    1      -30.637181   1.000000
    2      -30.636740   1.000000
    3      -30.635944   1.000000
    4      -30.635655   1.000000
    5      -30.635655   1.000000
    6      -23.572186   1.000000
    7       -2.634800   1.000000
    8       -1.893376   1.000000
    9       -1.893376   1.000000
   10        4.197066   0.000000
   11        5.553140   0.000000
   12        7.187389   0.000000
   13        9.480738   0.000000
   14        9.480738   0.000000
   15       11.045301   0.000000
   16       11.499629   0.000000
 
  0.5000000E+00  0.3750000E+00 -0.1110223E-15  0.4687500E-01
    1      -30.637096   1.000000
    2      -30.636723   1.000000
    3      -30.635945   1.000000
    4      -30.635577   1.000000
    5      -30.635526   1.000000
    6      -23.569588   1.000000
    7       -2.682984   1.000000
    8       -2.043189   1.000000
    9       -1.916169   1.000000
   10        4.413205   0.000000
   11        5.638579   0.000000
   12        7.558237   0.000000
   13        9.289671   0.000000
   14        9.436142   0.000000
   15       11.006410   0.000000
   16       11.464771   0.000000
 
 -0.3750000E+00  0.3750000E+00 -0.3270023E-16  0.2343750E-01
    1      -30.636935   1.000000
    2      -30.636443   1.000000
    3      -30.636045   1.000000
    4      -30.635747   1.000000
    5      -30.635650   1.000000
    6      -23.569218   1.000000
    7       -2.556709   1.000000
    8       -2.306474   1.000000
    9       -1.854538   1.000000
   10        4.787063   0.000000
   11        6.155802   0.000000
   12        7.689961   0.000000
   13        7.726434   0.000000
   14        8.889134   0.000000
   15       10.402267   0.000000
   16       12.357641   0.000000
 
  0.5000000E+00  0.5000000E+00  0.0000000E+00  0.5859375E-02
    1      -30.637234   1.000000
    2      -30.636799   1.000000
    3      -30.635856   1.000000
    4      -30.635453   1.000000
    5      -30.635453   1.000000
    6      -23.568763   1.000000
    7       -2.751706   1.000000
    8       -1.960848   1.000000
    9       -1.960848   1.000000
   10        4.202715   0.000000
   11        5.383654   0.000000
   12        8.619078   0.000000
   13        9.537175   0.000000
   14       10.092610   0.000000
   15       10.092610   0.000000
   16       11.889829   0.000000
 
  0.3750000E+00  0.2500000E+00  0.1250000E+00  0.4687500E-01
    1      -30.636813   1.000000
    2      -30.636647   1.000000
    3      -30.636404   1.000000
    4      -30.636170   1.000000
    5      -30.635897   1.000000
    6      -23.578785   1.000000
    7       -2.413516   1.000000
    8       -1.834795   1.000000
    9       -1.640869   1.005755
   10        3.721501   0.000000
   11        6.300869   0.000000
   12        6.763372   0.000000
   13        8.388748   0.000000
   14        8.601164   0.000000
   15       10.403232   0.000000
   16       11.041877   0.000000
 
  0.5000000E+00  0.2500000E+00  0.1250000E+00  0.9375000E-01
    1      -30.636739   1.000000
    2      -30.636561   1.000000
    3      -30.636359   1.000000
    4      -30.635928   1.000000
    5      -30.635751   1.000000
    6      -23.573739   1.000000
    7       -2.609833   1.000000
    8       -1.999357   1.000000
    9       -1.720405   1.000168
   10        4.457383   0.000000
   11        6.247936   0.000000
   12        6.649765   0.000000
   13        8.177030   0.000000
   14        9.351692   0.000000
   15       10.240823   0.000000
   16       10.738594   0.000000
 
 -0.3750000E+00  0.2500000E+00  0.1250000E+00  0.4687500E-01
    1      -30.636751   1.000000
    2      -30.636517   1.000000
    3      -30.636200   1.000000
    4      -30.635938   1.000000
    5      -30.635679   1.000000
    6      -23.571641   1.000000
    7       -2.685661   1.000000
    8       -2.053328   1.000000
    9       -1.763223   1.000014
   10        4.704258   0.000000
   11        6.060478   0.000000
   12        7.386552   0.000000
   13        7.992000   0.000000
   14        8.809740   0.000000
   15       10.296428   0.000000
   16       10.978468   0.000000
 
  0.5000000E+00  0.3750000E+00  0.1250000E+00  0.4687500E-01
    1      -30.636919   1.000000
    2      -30.636670   1.000000
    3      -30.636139   1.000000
    4      -30.635716   1.000000
    5      -30.635660   1.000000
    6      -23.571674   1.000000
    7       -2.606159   1.000000
    8       -2.023389   1.000000
    9       -1.873615   1.000000
   10        4.591564   0.000000
   11        5.923992   0.000000
   12        6.580609   0.000000
   13        8.956767   0.000000
   14        9.575586   0.000000
   15       10.407877   0.000000
   16       11.958120   0.000000
 
 -0.3750000E+00  0.3750000E+00  0.1250000E+00  0.9375000E-01
    1      -30.636769   1.000000
    2      -30.636466   1.000000
    3      -30.636150   1.000000
    4      -30.635918   1.000000
    5      -30.635549   1.000000
    6      -23.569573   1.000000
    7       -2.555354   1.000000
    8       -2.243190   1.000000
    9       -1.906716   1.000000
   10        5.091281   0.000000
   11        6.142083   0.000000
   12        6.734626   0.000000
   13        7.961238   0.000000
   14        9.367588   0.000000
   15       10.668902   0.000000
   16       11.570247   0.000000
 
 -0.2500000E+00  0.3750000E+00  0.1250000E+00  0.4687500E-01
    1      -30.636710   1.000000
    2      -30.636309   1.000000
    3      -30.636255   1.000000
    4      -30.635997   1.000000
    5      -30.635667   1.000000
    6      -23.570428   1.000000
    7       -2.504833   1.000000
    8       -2.306673   1.000000
    9       -1.829969   1.000000
   10        5.306017   0.000000
   11        5.848984   0.000000
   12        6.836234   0.000000
   13        7.988785   0.000000
   14        9.150686   0.000000
   15        9.829393   0.000000
   16       12.162304   0.000000
 
 -0.3750000E+00  0.5000000E+00  0.1250000E+00  0.2343750E-01
    1      -30.636968   1.000000
    2      -30.636694   1.000000
    3      -30.635955   1.000000
    4      -30.635713   1.000000
    5      -30.635450   1.000000
    6      -23.568734   1.000000
    7       -2.652580   1.000000
    8       -2.097420   1.000000
    9       -1.987419   1.000000
   10        4.642734   0.000000
   11        5.787069   0.000000
   12        7.783525   0.000000
   13        8.033755   0.000000
   14       10.240682   0.000000
   15       10.771562   0.000000
   16       11.208767   0.000000
 
 -0.2500000E+00  0.5000000E+00  0.2500000E+00  0.1171875E-01
    1      -30.636553   1.000000
    2      -30.636323   1.000000
    3      -30.636323   1.000000
    4      -30.636075   1.000000
    5      -30.635443   1.000000
    6      -23.568672   1.000000
    7       -2.393191   1.000000
    8       -2.393191   1.000000
    9       -2.013299   1.000000
   10        5.607112   0.000000
   11        6.246077   0.000000
   12        6.823742   0.000000
   13        6.823742   0.000000
   14       10.634323   0.000000
   15       10.634323   0.000000
   16       10.880349   0.000000
