Og_FCC                                  
           1
     4.944914    0.000000    0.000000
     2.472457    4.282421   -0.000000
     2.472457    1.427474    4.037505
   Og
   1
Direct configuration=     1
   0.00000000  0.00000000  0.00000000
Og_FCC                                  
           1
     5.043812    0.000000    0.000000
     2.521906    4.282421   -0.000000
     2.521906    1.427474    4.037505
   Og
   1
Direct configuration=     2
   0.00000000  0.00000000  0.00000000
Og_FCC                                  
           1
     4.846016    0.000000    0.000000
     2.423008    4.282421   -0.000000
     2.423008    1.427474    4.037505
   Og
   1
Direct configuration=     3
   0.00000000  0.00000000  0.00000000
Og_FCC                                  
           1
     4.944914    0.000000    0.000000
     2.472457    4.368069   -0.000000
     2.472457    1.456023    4.037505
   Og
   1
Direct configuration=     4
   0.00000000  0.00000000  0.00000000
Og_FCC                                  
           1
     4.944914    0.000000    0.000000
     2.472457    4.196773   -0.000000
     2.472457    1.398924    4.037505
   Og
   1
Direct configuration=     5
   0.00000000  0.00000000  0.00000000
Og_FCC                                  
           1
     4.944914    0.000000    0.000000
     2.472457    4.282421   -0.000000
     2.472457    1.427474    4.118255
   Og
   1
Direct configuration=     6
   0.00000000  0.00000000  0.00000000
Og_FCC                                  
           1
     4.944914    0.000000    0.000000
     2.472457    4.282421   -0.000000
     2.472457    1.427474    3.956755
   Og
   1
Direct configuration=     7
   0.00000000  0.00000000  0.00000000
Og_FCC                                  
           1
     4.944914    0.098898    0.000000
     2.472457    4.331870   -0.000000
     2.472457    1.476923    4.037505
   Og
   1
Direct configuration=     8
   0.00000000  0.00000000  0.00000000
Og_FCC                                  
           1
     4.944914   -0.098898    0.000000
     2.472457    4.232972   -0.000000
     2.472457    1.378025    4.037505
   Og
   1
Direct configuration=     9
   0.00000000  0.00000000  0.00000000
Og_FCC                                  
           1
     4.944914    0.000000    0.000000
     2.472457    4.282421    0.085648
     2.472457    1.427474    4.066055
   Og
   1
Direct configuration=    10
   0.00000000  0.00000000  0.00000000
Og_FCC                                  
           1
     4.944914    0.000000    0.000000
     2.472457    4.282421   -0.085648
     2.472457    1.427474    4.008956
   Og
   1
Direct configuration=    11
   0.00000000  0.00000000  0.00000000
Og_FCC                                  
           1
     4.944914    0.000000    0.000000
     2.472457    4.282421   -0.000000
     2.553207    1.427474    4.037505
   Og
   1
Direct configuration=    12
   0.00000000  0.00000000  0.00000000
Og_FCC                                  
           1
     4.944914    0.000000    0.000000
     2.472457    4.282421   -0.000000
     2.391707    1.427474    4.037505
   Og
   1
Direct configuration=    13
   0.00000000  0.00000000  0.00000000
Og_FCC                                  
           1
     4.944914    0.000000    0.000000
     2.472457    4.282421   -0.000000
     2.472457    1.427474    4.037505
   Og
   1
Direct configuration=    14
   0.00404456  0.00000000 -0.00000000
Og_FCC                                  
           1
     4.944914    0.000000    0.000000
     2.472457    4.282421   -0.000000
     2.472457    1.427474    4.037505
   Og
   1
Direct configuration=    15
  -0.00404456 -0.00000000  0.00000000
