   1   1   0   0
  0.6008441E+02  0.4396350E-09  0.4396350E-09  0.4396350E-09  0.1000000E-15
  1.000000000000000E-004
  CAR 
 Og_FCC                                  
    130.05515432    -38.41337496  301      3.55765362      1.00000000
    -38.413  0.0000E+00  0.0000E+00
    -37.852  0.0000E+00  0.0000E+00
    -37.290  0.0000E+00  0.0000E+00
    -36.729  0.0000E+00  0.0000E+00
    -36.167  0.0000E+00  0.0000E+00
    -35.606  0.0000E+00  0.0000E+00
    -35.044  0.0000E+00  0.0000E+00
    -34.482  0.0000E+00  0.0000E+00
    -33.921  0.0000E+00  0.0000E+00
    -33.359  0.0000E+00  0.0000E+00
    -32.798  0.0000E+00  0.0000E+00
    -32.236  0.0000E+00  0.0000E+00
    -31.675  0.0000E+00  0.0000E+00
    -31.113  0.0000E+00  0.0000E+00
    -30.552  0.0000E+00  0.4000E+01
    -29.990  0.0000E+00  0.4000E+01
    -29.428  0.0000E+00  0.4000E+01
    -28.867  0.0000E+00  0.4000E+01
    -28.305  0.0000E+00  0.4000E+01
    -27.744  0.0000E+00  0.4000E+01
    -27.182  0.0000E+00  0.4000E+01
    -26.621  0.0000E+00  0.4000E+01
    -26.059  0.0000E+00  0.4000E+01
    -25.497  0.0000E+00  0.4000E+01
    -24.936  0.0000E+00  0.4000E+01
    -24.374  0.0000E+00  0.4000E+01
    -23.813  0.0000E+00  0.1000E+02
    -23.251  0.0000E+00  0.1000E+02
    -22.690  0.0000E+00  0.1000E+02
    -22.128  0.0000E+00  0.1000E+02
    -21.567  0.0000E+00  0.1000E+02
    -21.005  0.0000E+00  0.1000E+02
    -20.443  0.6230E-01  0.1009E+02
    -19.882  0.0000E+00  0.1200E+02
    -19.320  0.0000E+00  0.1200E+02
    -18.759  0.0000E+00  0.1200E+02
    -18.197  0.0000E+00  0.1200E+02
    -17.636  0.0000E+00  0.1200E+02
    -17.074  0.0000E+00  0.1200E+02
    -16.512  0.0000E+00  0.1200E+02
    -15.951  0.0000E+00  0.1200E+02
    -15.389  0.0000E+00  0.1200E+02
    -14.828  0.0000E+00  0.1200E+02
    -14.266  0.0000E+00  0.1200E+02
    -13.705  0.0000E+00  0.1200E+02
    -13.143  0.0000E+00  0.1200E+02
    -12.582  0.0000E+00  0.1200E+02
    -12.020  0.0000E+00  0.1200E+02
    -11.458  0.0000E+00  0.1200E+02
    -10.897  0.0000E+00  0.1200E+02
    -10.335  0.0000E+00  0.1200E+02
     -9.774  0.0000E+00  0.1200E+02
     -9.212  0.0000E+00  0.1200E+02
     -8.651  0.0000E+00  0.1200E+02
     -8.089  0.0000E+00  0.1200E+02
     -7.527  0.3323E+00  0.1334E+02
     -6.966  0.0000E+00  0.1400E+02
     -6.404  0.0000E+00  0.1400E+02
     -5.843  0.0000E+00  0.1400E+02
     -5.281  0.0000E+00  0.1400E+02
     -4.720  0.0000E+00  0.1400E+02
     -4.158  0.0000E+00  0.1400E+02
     -3.597  0.0000E+00  0.1400E+02
     -3.035  0.0000E+00  0.1400E+02
     -2.473  0.0000E+00  0.1400E+02
     -1.912  0.0000E+00  0.1400E+02
     -1.350  0.0000E+00  0.1400E+02
     -0.789  0.0000E+00  0.1400E+02
     -0.227  0.0000E+00  0.1400E+02
      0.334  0.0000E+00  0.1400E+02
      0.896  0.0000E+00  0.1562E+02
      1.458  0.0000E+00  0.1584E+02
      2.019  0.6230E-01  0.1672E+02
      2.581  0.0000E+00  0.1732E+02
      3.142  0.0000E+00  0.1786E+02
      3.704  0.0000E+00  0.1801E+02
      4.265  0.0000E+00  0.1801E+02
      4.827  0.0000E+00  0.1801E+02
      5.388  0.0000E+00  0.1809E+02
      5.950  0.0000E+00  0.1825E+02
      6.512  0.0000E+00  0.1850E+02
      7.073  0.0000E+00  0.1951E+02
      7.635  0.0000E+00  0.2003E+02
      8.196  0.0000E+00  0.2028E+02
      8.758  0.1912E-03  0.2119E+02
      9.319  0.0000E+00  0.2199E+02
      9.881  0.4984E+00  0.2282E+02
     10.442  0.0000E+00  0.2395E+02
     11.004  0.0000E+00  0.2461E+02
     11.566  0.0000E+00  0.2578E+02
     12.127  0.0000E+00  0.2615E+02
     12.689  0.0000E+00  0.2762E+02
     13.250  0.0000E+00  0.2857E+02
     13.812  0.0000E+00  0.2965E+02
     14.373  0.0000E+00  0.3052E+02
     14.935  0.2492E+00  0.3175E+02
     15.497  0.0000E+00  0.3248E+02
     16.058  0.0000E+00  0.3285E+02
     16.620  0.2492E+00  0.3422E+02
     17.181  0.0000E+00  0.3633E+02
     17.743  0.1784E+00  0.3767E+02
     18.304  0.0000E+00  0.4066E+02
     18.866  0.1755E-05  0.4238E+02
     19.427  0.0000E+00  0.4369E+02
     19.989  0.0000E+00  0.4553E+02
     20.551  0.0000E+00  0.4619E+02
     21.112  0.0000E+00  0.4661E+02
     21.674  0.0000E+00  0.4781E+02
     22.235  0.0000E+00  0.4807E+02
     22.797  0.0000E+00  0.4954E+02
     23.358  0.1038E-01  0.5058E+02
     23.920  0.0000E+00  0.5201E+02
     24.482  0.0000E+00  0.5409E+02
     25.043  0.3895E+00  0.5614E+02
     25.605  0.0000E+00  0.5698E+02
     26.166  0.0000E+00  0.5798E+02
     26.728  0.2492E+00  0.5946E+02
     27.289  0.0000E+00  0.6054E+02
     27.851  0.0000E+00  0.6120E+02
     28.412  0.9575E-09  0.6234E+02
     28.974  0.0000E+00  0.6355E+02
     29.536  0.5598E-14  0.6480E+02
     30.097  0.0000E+00  0.6597E+02
     30.659  0.2077E-01  0.6751E+02
     31.220  0.0000E+00  0.6928E+02
     31.782  0.0000E+00  0.7089E+02
     32.343  0.0000E+00  0.7235E+02
     32.905  0.0000E+00  0.7369E+02
     33.467  0.1593E-05  0.7529E+02
     34.028  0.0000E+00  0.7635E+02
     34.590  0.0000E+00  0.7844E+02
     35.151  0.0000E+00  0.7963E+02
     35.713  0.8432E-01  0.8158E+02
     36.274  0.0000E+00  0.8345E+02
     36.836  0.0000E+00  0.8399E+02
     37.397  0.0000E+00  0.8567E+02
     37.959  0.0000E+00  0.8686E+02
     38.521  0.0000E+00  0.8833E+02
     39.082  0.8307E-01  0.8945E+02
     39.644  0.0000E+00  0.9089E+02
     40.205  0.0000E+00  0.9295E+02
     40.767  0.0000E+00  0.9413E+02
     41.328  0.0000E+00  0.9559E+02
     41.890  0.0000E+00  0.9743E+02
     42.452  0.0000E+00  0.9943E+02
     43.013  0.0000E+00  0.1000E+03
     43.575  0.4074E-12  0.1019E+03
     44.136  0.0000E+00  0.1033E+03
     44.698  0.0000E+00  0.1054E+03
     45.259  0.4983E+00  0.1071E+03
     45.821  0.0000E+00  0.1091E+03
     46.382  0.0000E+00  0.1101E+03
     46.944  0.1108E-14  0.1116E+03
     47.506  0.0000E+00  0.1137E+03
     48.067  0.0000E+00  0.1153E+03
     48.629  0.0000E+00  0.1170E+03
     49.190  0.0000E+00  0.1190E+03
     49.752  0.1205E+00  0.1204E+03
     50.313  0.1049E-11  0.1219E+03
     50.875  0.0000E+00  0.1237E+03
     51.437  0.0000E+00  0.1256E+03
     51.998  0.0000E+00  0.1278E+03
     52.560  0.0000E+00  0.1295E+03
     53.121  0.0000E+00  0.1311E+03
     53.683  0.0000E+00  0.1325E+03
     54.244  0.0000E+00  0.1349E+03
     54.806  0.0000E+00  0.1365E+03
     55.367  0.6270E-01  0.1379E+03
     55.929  0.0000E+00  0.1400E+03
     56.491  0.0000E+00  0.1412E+03
     57.052  0.1718E-01  0.1428E+03
     57.614  0.0000E+00  0.1449E+03
     58.175  0.0000E+00  0.1467E+03
     58.737  0.3491E-05  0.1489E+03
     59.298  0.5418E-16  0.1506E+03
     59.860  0.0000E+00  0.1529E+03
     60.421  0.0000E+00  0.1541E+03
     60.983  0.0000E+00  0.1562E+03
     61.545  0.0000E+00  0.1577E+03
     62.106  0.0000E+00  0.1597E+03
     62.668  0.0000E+00  0.1614E+03
     63.229  0.2207E-05  0.1635E+03
     63.791  0.0000E+00  0.1661E+03
     64.352  0.4984E+00  0.1676E+03
     64.914  0.2488E+00  0.1692E+03
     65.476  0.0000E+00  0.1720E+03
     66.037  0.2492E+00  0.1737E+03
     66.599  0.0000E+00  0.1756E+03
     67.160  0.1584E+00  0.1775E+03
     67.722  0.0000E+00  0.1793E+03
     68.283  0.1246E+00  0.1808E+03
     68.845  0.0000E+00  0.1832E+03
     69.406  0.0000E+00  0.1851E+03
     69.968  0.0000E+00  0.1872E+03
     70.530  0.3115E+00  0.1892E+03
     71.091  0.2021E-01  0.1910E+03
     71.653  0.0000E+00  0.1938E+03
     72.214  0.0000E+00  0.1950E+03
     72.776  0.4009E-02  0.1969E+03
     73.337  0.2492E+00  0.1993E+03
     73.899  0.0000E+00  0.2014E+03
     74.461  0.7755E-01  0.2035E+03
     75.022  0.0000E+00  0.2057E+03
     75.584  0.2375E+00  0.2074E+03
     76.145  0.0000E+00  0.2096E+03
     76.707  0.0000E+00  0.2110E+03
     77.268  0.2027E+00  0.2140E+03
     77.830  0.0000E+00  0.2166E+03
     78.391  0.0000E+00  0.2198E+03
     78.953  0.0000E+00  0.2224E+03
     79.515  0.5584E-06  0.2244E+03
     80.076  0.0000E+00  0.2263E+03
     80.638  0.0000E+00  0.2280E+03
     81.199  0.0000E+00  0.2301E+03
     81.761  0.2233E-12  0.2325E+03
     82.322  0.0000E+00  0.2350E+03
     82.884  0.2964E-02  0.2371E+03
     83.446  0.0000E+00  0.2390E+03
     84.007  0.0000E+00  0.2410E+03
     84.569  0.2453E+00  0.2429E+03
     85.130  0.6230E-01  0.2454E+03
     85.692  0.0000E+00  0.2479E+03
     86.253  0.0000E+00  0.2505E+03
     86.815  0.2178E-03  0.2526E+03
     87.376  0.1092E+00  0.2545E+03
     87.938  0.2492E+00  0.2570E+03
     88.500  0.8307E-01  0.2588E+03
     89.061  0.0000E+00  0.2604E+03
     89.623  0.0000E+00  0.2627E+03
     90.184  0.0000E+00  0.2651E+03
     90.746  0.7629E-14  0.2672E+03
     91.307  0.0000E+00  0.2699E+03
     91.869  0.9140E-08  0.2721E+03
     92.431  0.0000E+00  0.2750E+03
     92.992  0.8096E-13  0.2770E+03
     93.554  0.0000E+00  0.2798E+03
     94.115  0.0000E+00  0.2812E+03
     94.677  0.0000E+00  0.2835E+03
     95.238  0.0000E+00  0.2858E+03
     95.800  0.8307E-01  0.2881E+03
     96.361  0.0000E+00  0.2906E+03
     96.923  0.2459E-13  0.2922E+03
     97.485  0.0000E+00  0.2947E+03
     98.046  0.2469E+00  0.2975E+03
     98.608  0.2492E+00  0.2996E+03
     99.169  0.8307E-01  0.3021E+03
     99.731  0.0000E+00  0.3049E+03
    100.292  0.0000E+00  0.3072E+03
    100.854  0.1691E-03  0.3095E+03
    101.416  0.0000E+00  0.3120E+03
    101.977  0.0000E+00  0.3143E+03
    102.539  0.8174E-05  0.3164E+03
    103.100  0.0000E+00  0.3180E+03
    103.662  0.0000E+00  0.3202E+03
    104.223  0.0000E+00  0.3227E+03
    104.785  0.5448E-02  0.3251E+03
    105.346  0.4980E+00  0.3286E+03
    105.908  0.2044E+00  0.3310E+03
    106.470  0.0000E+00  0.3331E+03
    107.031  0.0000E+00  0.3352E+03
    107.593  0.0000E+00  0.3376E+03
    108.154  0.6230E-01  0.3401E+03
    108.716  0.0000E+00  0.3429E+03
    109.277  0.2188E-02  0.3454E+03
    109.839  0.0000E+00  0.3478E+03
    110.400  0.0000E+00  0.3494E+03
    110.962  0.3738E+00  0.3523E+03
    111.524  0.1138E+00  0.3545E+03
    112.085  0.0000E+00  0.3567E+03
    112.647  0.0000E+00  0.3595E+03
    113.208  0.0000E+00  0.3618E+03
    113.770  0.2504E-01  0.3648E+03
    114.331  0.4963E-06  0.3670E+03
    114.893  0.0000E+00  0.3697E+03
    115.455  0.0000E+00  0.3724E+03
    116.016  0.0000E+00  0.3754E+03
    116.578  0.0000E+00  0.3777E+03
    117.139  0.1556E-10  0.3804E+03
    117.701  0.1301E-02  0.3820E+03
    118.262  0.0000E+00  0.3831E+03
    118.824  0.0000E+00  0.3837E+03
    119.385  0.0000E+00  0.3838E+03
    119.947  0.0000E+00  0.3838E+03
    120.509  0.0000E+00  0.3839E+03
    121.070  0.0000E+00  0.3839E+03
    121.632  0.0000E+00  0.3840E+03
    122.193  0.0000E+00  0.3840E+03
    122.755  0.0000E+00  0.3840E+03
    123.316  0.0000E+00  0.3840E+03
    123.878  0.0000E+00  0.3840E+03
    124.440  0.0000E+00  0.3840E+03
    125.001  0.0000E+00  0.3840E+03
    125.563  0.0000E+00  0.3840E+03
    126.124  0.0000E+00  0.3840E+03
    126.686  0.0000E+00  0.3840E+03
    127.247  0.0000E+00  0.3840E+03
    127.809  0.0000E+00  0.3840E+03
    128.370  0.0000E+00  0.3840E+03
    128.932  0.0000E+00  0.3840E+03
    129.494  0.0000E+00  0.3840E+03
    130.055  0.0000E+00  0.3840E+03
