       N       E                     dE             d eps       ncg     rms          rms(c)
DIA:   1    -0.131933818443E+02   -0.13193E+02    0.00000E+00     0   0.000E+00
DIA:   2    -0.131933818439E+02    0.42564E-09    0.00000E+00     0   0.000E+00
DIA:   3    -0.131933818442E+02   -0.32196E-09    0.00000E+00     0   0.000E+00
DIA:   4    -0.131933818443E+02   -0.49113E-10    0.00000E+00     0   0.000E+00
DIA:   5    -0.131933818438E+02    0.46748E-09    0.00000E+00     0   0.000E+00    0.220E-04
DIA:   6    -0.131933818505E+02   -0.66993E-08    0.00000E+00     0   0.000E+00
   1 F= -.13616864E+02 E0= -.13616863E+02  d E =-.325517E-05  mag=    -0.0000    -0.0000    -0.0000
 imaginary and real dielectric function
