   1   1   0   0
  0.6156630E+02  0.4432200E-09  0.4432200E-09  0.4432200E-09  0.1000000E-15
  1.000000000000000E-004
  CAR 
 Og_FCC                                  
     56.42098327    -19.79248279  301     -3.47009880      1.00000000
    -19.792  0.0000E+00  0.0000E+00
    -19.538  0.0000E+00  0.0000E+00
    -19.284  0.0000E+00  0.0000E+00
    -19.030  0.0000E+00  0.0000E+00
    -18.776  0.0000E+00  0.0000E+00
    -18.522  0.0000E+00  0.0000E+00
    -18.268  0.0000E+00  0.0000E+00
    -18.014  0.0000E+00  0.0000E+00
    -17.760  0.0000E+00  0.0000E+00
    -17.506  0.0000E+00  0.0000E+00
    -17.252  0.0000E+00  0.0000E+00
    -16.998  0.0000E+00  0.0000E+00
    -16.744  0.0000E+00  0.0000E+00
    -16.490  0.0000E+00  0.0000E+00
    -16.236  0.0000E+00  0.1389E+00
    -15.982  0.0000E+00  0.2000E+01
    -15.728  0.0000E+00  0.2000E+01
    -15.474  0.0000E+00  0.2000E+01
    -15.220  0.0000E+00  0.2000E+01
    -14.966  0.0000E+00  0.2000E+01
    -14.712  0.0000E+00  0.2000E+01
    -14.458  0.0000E+00  0.2000E+01
    -14.203  0.0000E+00  0.2000E+01
    -13.949  0.0000E+00  0.2000E+01
    -13.695  0.0000E+00  0.2000E+01
    -13.441  0.0000E+00  0.2000E+01
    -13.187  0.0000E+00  0.2000E+01
    -12.933  0.0000E+00  0.2000E+01
    -12.679  0.0000E+00  0.2000E+01
    -12.425  0.0000E+00  0.2000E+01
    -12.171  0.0000E+00  0.2000E+01
    -11.917  0.0000E+00  0.2000E+01
    -11.663  0.0000E+00  0.2000E+01
    -11.409  0.0000E+00  0.2000E+01
    -11.155  0.0000E+00  0.2000E+01
    -10.901  0.0000E+00  0.2000E+01
    -10.647  0.0000E+00  0.2000E+01
    -10.393  0.0000E+00  0.2000E+01
    -10.139  0.0000E+00  0.2000E+01
     -9.885  0.0000E+00  0.2000E+01
     -9.631  0.0000E+00  0.2000E+01
     -9.377  0.0000E+00  0.2000E+01
     -9.123  0.0000E+00  0.2000E+01
     -8.869  0.0000E+00  0.2000E+01
     -8.615  0.0000E+00  0.2000E+01
     -8.360  0.0000E+00  0.2000E+01
     -8.106  0.0000E+00  0.2000E+01
     -7.852  0.0000E+00  0.2000E+01
     -7.598  0.0000E+00  0.2000E+01
     -7.344  0.0000E+00  0.2000E+01
     -7.090  0.0000E+00  0.2000E+01
     -6.836  0.0000E+00  0.2000E+01
     -6.582  0.0000E+00  0.2000E+01
     -6.328  0.0000E+00  0.2000E+01
     -6.074  0.0000E+00  0.2000E+01
     -5.820  0.0000E+00  0.2000E+01
     -5.566  0.0000E+00  0.3398E+01
     -5.312  0.0000E+00  0.3861E+01
     -5.058  0.0000E+00  0.3991E+01
     -4.804  0.0000E+00  0.4000E+01
     -4.550  0.0000E+00  0.4694E+01
     -4.296  0.8751E+00  0.5676E+01
     -4.042  0.0000E+00  0.6778E+01
     -3.788  0.1458E+00  0.7667E+01
     -3.534  0.0000E+00  0.8000E+01
     -3.280  0.0000E+00  0.8000E+01
     -3.026  0.0000E+00  0.8000E+01
     -2.771  0.0000E+00  0.8000E+01
     -2.517  0.0000E+00  0.8000E+01
     -2.263  0.0000E+00  0.8000E+01
     -2.009  0.0000E+00  0.8000E+01
     -1.755  0.0000E+00  0.8000E+01
     -1.501  0.0000E+00  0.8000E+01
     -1.247  0.0000E+00  0.8000E+01
     -0.993  0.0000E+00  0.8000E+01
     -0.739  0.0000E+00  0.8000E+01
     -0.485  0.0000E+00  0.8000E+01
     -0.231  0.0000E+00  0.8000E+01
      0.023  0.0000E+00  0.8000E+01
      0.277  0.0000E+00  0.8000E+01
      0.531  0.0000E+00  0.8000E+01
      0.785  0.0000E+00  0.8000E+01
      1.039  0.0000E+00  0.8000E+01
      1.293  0.0000E+00  0.8000E+01
      1.547  0.0000E+00  0.8000E+01
      1.801  0.0000E+00  0.8000E+01
      2.055  0.0000E+00  0.8000E+01
      2.309  0.0000E+00  0.8009E+01
      2.563  0.0000E+00  0.8009E+01
      2.818  0.0000E+00  0.8009E+01
      3.072  0.0000E+00  0.8083E+01
      3.326  0.0000E+00  0.8139E+01
      3.580  0.0000E+00  0.8167E+01
      3.834  0.0000E+00  0.8444E+01
      4.088  0.0000E+00  0.8889E+01
      4.342  0.2185E-14  0.9250E+01
      4.596  0.0000E+00  0.9806E+01
      4.850  0.0000E+00  0.1031E+02
      5.104  0.0000E+00  0.1042E+02
      5.358  0.0000E+00  0.1086E+02
      5.612  0.8747E+00  0.1164E+02
      5.866  0.0000E+00  0.1203E+02
      6.120  0.0000E+00  0.1210E+02
      6.374  0.0000E+00  0.1288E+02
      6.628  0.0000E+00  0.1344E+02
      6.882  0.0000E+00  0.1381E+02
      7.136  0.0000E+00  0.1461E+02
      7.390  0.0000E+00  0.1506E+02
      7.644  0.0000E+00  0.1539E+02
      7.898  0.0000E+00  0.1561E+02
      8.152  0.0000E+00  0.1586E+02
      8.406  0.8741E+00  0.1623E+02
      8.661  0.0000E+00  0.1651E+02
      8.915  0.0000E+00  0.1703E+02
      9.169  0.2916E+00  0.1723E+02
      9.423  0.0000E+00  0.1776E+02
      9.677  0.0000E+00  0.1791E+02
      9.931  0.0000E+00  0.1857E+02
     10.185  0.0000E+00  0.1870E+02
     10.439  0.1093E+00  0.1873E+02
     10.693  0.0000E+00  0.1908E+02
     10.947  0.0000E+00  0.1986E+02
     11.201  0.0000E+00  0.2088E+02
     11.455  0.7288E-01  0.2130E+02
     11.709  0.0000E+00  0.2207E+02
     11.963  0.0000E+00  0.2263E+02
     12.217  0.0000E+00  0.2280E+02
     12.471  0.0000E+00  0.2313E+02
     12.725  0.0000E+00  0.2357E+02
     12.979  0.0000E+00  0.2394E+02
     13.233  0.0000E+00  0.2436E+02
     13.487  0.0000E+00  0.2475E+02
     13.741  0.0000E+00  0.2536E+02
     13.995  0.0000E+00  0.2544E+02
     14.250  0.0000E+00  0.2675E+02
     14.504  0.0000E+00  0.2723E+02
     14.758  0.0000E+00  0.2808E+02
     15.012  0.0000E+00  0.2875E+02
     15.266  0.8747E+00  0.2964E+02
     15.520  0.0000E+00  0.2990E+02
     15.774  0.0000E+00  0.3042E+02
     16.028  0.0000E+00  0.3097E+02
     16.282  0.9945E-01  0.3191E+02
     16.536  0.0000E+00  0.3247E+02
     16.790  0.0000E+00  0.3306E+02
     17.044  0.0000E+00  0.3343E+02
     17.298  0.2913E-04  0.3419E+02
     17.552  0.0000E+00  0.3459E+02
     17.806  0.0000E+00  0.3548E+02
     18.060  0.0000E+00  0.3637E+02
     18.314  0.0000E+00  0.3700E+02
     18.568  0.0000E+00  0.3822E+02
     18.822  0.0000E+00  0.3879E+02
     19.076  0.0000E+00  0.3935E+02
     19.330  0.0000E+00  0.3980E+02
     19.584  0.0000E+00  0.4002E+02
     19.839  0.0000E+00  0.4041E+02
     20.093  0.0000E+00  0.4187E+02
     20.347  0.0000E+00  0.4228E+02
     20.601  0.7618E+00  0.4306E+02
     20.855  0.0000E+00  0.4388E+02
     21.109  0.2916E+00  0.4442E+02
     21.363  0.0000E+00  0.4532E+02
     21.617  0.1285E+00  0.4569E+02
     21.871  0.0000E+00  0.4725E+02
     22.125  0.0000E+00  0.4764E+02
     22.379  0.0000E+00  0.4810E+02
     22.633  0.0000E+00  0.4817E+02
     22.887  0.9954E-03  0.4864E+02
     23.141  0.0000E+00  0.4903E+02
     23.395  0.0000E+00  0.4977E+02
     23.649  0.0000E+00  0.5120E+02
     23.903  0.0000E+00  0.5156E+02
     24.157  0.0000E+00  0.5186E+02
     24.411  0.0000E+00  0.5292E+02
     24.665  0.0000E+00  0.5327E+02
     24.919  0.0000E+00  0.5396E+02
     25.173  0.0000E+00  0.5465E+02
     25.428  0.8747E+00  0.5593E+02
     25.682  0.0000E+00  0.5715E+02
     25.936  0.0000E+00  0.5787E+02
     26.190  0.0000E+00  0.5806E+02
     26.444  0.0000E+00  0.5872E+02
     26.698  0.0000E+00  0.5944E+02
     26.952  0.0000E+00  0.6004E+02
     27.206  0.0000E+00  0.6048E+02
     27.460  0.0000E+00  0.6129E+02
     27.714  0.0000E+00  0.6163E+02
     27.968  0.0000E+00  0.6191E+02
     28.222  0.0000E+00  0.6241E+02
     28.476  0.0000E+00  0.6341E+02
     28.730  0.0000E+00  0.6385E+02
     28.984  0.0000E+00  0.6491E+02
     29.238  0.4372E+00  0.6572E+02
     29.492  0.0000E+00  0.6613E+02
     29.746  0.0000E+00  0.6669E+02
     30.000  0.1951E-01  0.6772E+02
     30.254  0.8745E+00  0.6825E+02
     30.508  0.2034E-04  0.6924E+02
     30.762  0.0000E+00  0.6994E+02
     31.016  0.0000E+00  0.7047E+02
     31.271  0.0000E+00  0.7142E+02
     31.525  0.0000E+00  0.7192E+02
     31.779  0.0000E+00  0.7299E+02
     32.033  0.0000E+00  0.7396E+02
     32.287  0.0000E+00  0.7407E+02
     32.541  0.0000E+00  0.7507E+02
     32.795  0.4374E+00  0.7574E+02
     33.049  0.0000E+00  0.7639E+02
     33.303  0.0000E+00  0.7704E+02
     33.557  0.1285E+01  0.7770E+02
     33.811  0.0000E+00  0.7835E+02
     34.065  0.8747E+00  0.7902E+02
     34.319  0.0000E+00  0.7922E+02
     34.573  0.3985E-01  0.7923E+02
     34.827  0.0000E+00  0.7947E+02
     35.081  0.0000E+00  0.8044E+02
     35.335  0.7289E-01  0.8098E+02
     35.589  0.0000E+00  0.8257E+02
     35.843  0.3055E-06  0.8304E+02
     36.097  0.0000E+00  0.8416E+02
     36.351  0.0000E+00  0.8463E+02
     36.605  0.0000E+00  0.8525E+02
     36.860  0.2912E+00  0.8587E+02
     37.114  0.0000E+00  0.8691E+02
     37.368  0.0000E+00  0.8796E+02
     37.622  0.0000E+00  0.8819E+02
     37.876  0.2187E+00  0.8980E+02
     38.130  0.0000E+00  0.9037E+02
     38.384  0.0000E+00  0.9106E+02
     38.638  0.0000E+00  0.9228E+02
     38.892  0.0000E+00  0.9283E+02
     39.146  0.5798E-01  0.9392E+02
     39.400  0.0000E+00  0.9394E+02
     39.654  0.0000E+00  0.9477E+02
     39.908  0.0000E+00  0.9535E+02
     40.162  0.0000E+00  0.9580E+02
     40.416  0.0000E+00  0.9669E+02
     40.670  0.0000E+00  0.9728E+02
     40.924  0.0000E+00  0.9778E+02
     41.178  0.2302E+00  0.9837E+02
     41.432  0.0000E+00  0.9965E+02
     41.686  0.0000E+00  0.1001E+03
     41.940  0.0000E+00  0.1008E+03
     42.194  0.0000E+00  0.1015E+03
     42.449  0.0000E+00  0.1024E+03
     42.703  0.8746E+00  0.1028E+03
     42.957  0.0000E+00  0.1037E+03
     43.211  0.0000E+00  0.1048E+03
     43.465  0.0000E+00  0.1058E+03
     43.719  0.0000E+00  0.1071E+03
     43.973  0.0000E+00  0.1072E+03
     44.227  0.0000E+00  0.1078E+03
     44.481  0.9312E+00  0.1084E+03
     44.735  0.4856E-16  0.1090E+03
     44.989  0.0000E+00  0.1100E+03
     45.243  0.0000E+00  0.1104E+03
     45.497  0.0000E+00  0.1113E+03
     45.751  0.0000E+00  0.1119E+03
     46.005  0.2187E+00  0.1128E+03
     46.259  0.3936E-01  0.1134E+03
     46.513  0.0000E+00  0.1143E+03
     46.767  0.0000E+00  0.1150E+03
     47.021  0.0000E+00  0.1159E+03
     47.275  0.0000E+00  0.1160E+03
     47.529  0.2858E-08  0.1168E+03
     47.783  0.1111E+00  0.1173E+03
     48.038  0.0000E+00  0.1184E+03
     48.292  0.0000E+00  0.1186E+03
     48.546  0.0000E+00  0.1205E+03
     48.800  0.8743E+00  0.1215E+03
     49.054  0.1093E+00  0.1217E+03
     49.308  0.0000E+00  0.1231E+03
     49.562  0.0000E+00  0.1239E+03
     49.816  0.0000E+00  0.1247E+03
     50.070  0.0000E+00  0.1253E+03
     50.324  0.0000E+00  0.1261E+03
     50.578  0.0000E+00  0.1263E+03
     50.832  0.7301E-01  0.1270E+03
     51.086  0.0000E+00  0.1273E+03
     51.340  0.0000E+00  0.1277E+03
     51.594  0.0000E+00  0.1279E+03
     51.848  0.0000E+00  0.1279E+03
     52.102  0.0000E+00  0.1279E+03
     52.356  0.0000E+00  0.1279E+03
     52.610  0.0000E+00  0.1279E+03
     52.864  0.0000E+00  0.1279E+03
     53.118  0.0000E+00  0.1280E+03
     53.372  0.0000E+00  0.1280E+03
     53.626  0.0000E+00  0.1280E+03
     53.881  0.0000E+00  0.1280E+03
     54.135  0.0000E+00  0.1280E+03
     54.389  0.0000E+00  0.1280E+03
     54.643  0.0000E+00  0.1280E+03
     54.897  0.0000E+00  0.1280E+03
     55.151  0.0000E+00  0.1280E+03
     55.405  0.0000E+00  0.1280E+03
     55.659  0.0000E+00  0.1280E+03
     55.913  0.0000E+00  0.1280E+03
     56.167  0.0000E+00  0.1280E+03
     56.421  0.0000E+00  0.1280E+03
