   1   1   0   0
  0.5789729E+02  0.4342346E-09  0.4342346E-09  0.4342346E-09  0.1000000E-15
  1.000000000000000E-004
  CAR 
 Og_FCC                                  
     58.53186277    -45.21443000  301      2.59531992      1.00000000
    -45.214  0.0000E+00  0.0000E+00
    -44.869  0.0000E+00  0.0000E+00
    -44.523  0.0000E+00  0.0000E+00
    -44.177  0.0000E+00  0.0000E+00
    -43.831  0.0000E+00  0.0000E+00
    -43.485  0.0000E+00  0.0000E+00
    -43.140  0.0000E+00  0.0000E+00
    -42.794  0.0000E+00  0.0000E+00
    -42.448  0.0000E+00  0.0000E+00
    -42.102  0.0000E+00  0.0000E+00
    -41.756  0.0000E+00  0.0000E+00
    -41.410  0.0000E+00  0.0000E+00
    -41.065  0.0000E+00  0.0000E+00
    -40.719  0.0000E+00  0.0000E+00
    -40.373  0.0000E+00  0.4000E+01
    -40.027  0.0000E+00  0.4000E+01
    -39.681  0.0000E+00  0.4000E+01
    -39.335  0.0000E+00  0.4000E+01
    -38.990  0.0000E+00  0.4000E+01
    -38.644  0.0000E+00  0.4000E+01
    -38.298  0.0000E+00  0.4000E+01
    -37.952  0.0000E+00  0.4000E+01
    -37.606  0.0000E+00  0.4000E+01
    -37.261  0.0000E+00  0.4000E+01
    -36.915  0.0000E+00  0.4000E+01
    -36.569  0.0000E+00  0.4000E+01
    -36.223  0.0000E+00  0.4000E+01
    -35.877  0.0000E+00  0.4000E+01
    -35.531  0.0000E+00  0.4000E+01
    -35.186  0.0000E+00  0.4000E+01
    -34.840  0.0000E+00  0.4000E+01
    -34.494  0.0000E+00  0.4000E+01
    -34.148  0.0000E+00  0.4000E+01
    -33.802  0.0000E+00  0.4000E+01
    -33.457  0.0000E+00  0.4000E+01
    -33.111  0.0000E+00  0.4000E+01
    -32.765  0.0000E+00  0.1000E+02
    -32.419  0.0000E+00  0.1000E+02
    -32.073  0.0000E+00  0.1000E+02
    -31.727  0.0000E+00  0.1000E+02
    -31.382  0.0000E+00  0.1000E+02
    -31.036  0.0000E+00  0.1000E+02
    -30.690  0.0000E+00  0.1000E+02
    -30.344  0.0000E+00  0.1000E+02
    -29.998  0.0000E+00  0.1000E+02
    -29.652  0.0000E+00  0.1000E+02
    -29.307  0.0000E+00  0.1000E+02
    -28.961  0.0000E+00  0.1000E+02
    -28.615  0.0000E+00  0.1000E+02
    -28.269  0.0000E+00  0.1000E+02
    -27.923  0.0000E+00  0.1000E+02
    -27.578  0.0000E+00  0.1000E+02
    -27.232  0.0000E+00  0.1000E+02
    -26.886  0.0000E+00  0.1000E+02
    -26.540  0.0000E+00  0.1000E+02
    -26.194  0.0000E+00  0.1000E+02
    -25.848  0.0000E+00  0.1000E+02
    -25.503  0.0000E+00  0.1000E+02
    -25.157  0.1872E-13  0.1011E+02
    -24.811  0.0000E+00  0.1200E+02
    -24.465  0.0000E+00  0.1200E+02
    -24.119  0.0000E+00  0.1200E+02
    -23.774  0.0000E+00  0.1200E+02
    -23.428  0.0000E+00  0.1200E+02
    -23.082  0.0000E+00  0.1200E+02
    -22.736  0.0000E+00  0.1200E+02
    -22.390  0.0000E+00  0.1200E+02
    -22.044  0.0000E+00  0.1200E+02
    -21.699  0.0000E+00  0.1200E+02
    -21.353  0.0000E+00  0.1200E+02
    -21.007  0.0000E+00  0.1200E+02
    -20.661  0.0000E+00  0.1200E+02
    -20.315  0.0000E+00  0.1200E+02
    -19.969  0.0000E+00  0.1200E+02
    -19.624  0.0000E+00  0.1200E+02
    -19.278  0.0000E+00  0.1200E+02
    -18.932  0.0000E+00  0.1200E+02
    -18.586  0.0000E+00  0.1200E+02
    -18.240  0.0000E+00  0.1200E+02
    -17.895  0.0000E+00  0.1200E+02
    -17.549  0.0000E+00  0.1200E+02
    -17.203  0.0000E+00  0.1200E+02
    -16.857  0.0000E+00  0.1200E+02
    -16.511  0.0000E+00  0.1200E+02
    -16.165  0.0000E+00  0.1200E+02
    -15.820  0.0000E+00  0.1200E+02
    -15.474  0.0000E+00  0.1200E+02
    -15.128  0.0000E+00  0.1200E+02
    -14.782  0.0000E+00  0.1200E+02
    -14.436  0.0000E+00  0.1200E+02
    -14.091  0.0000E+00  0.1200E+02
    -13.745  0.0000E+00  0.1200E+02
    -13.399  0.0000E+00  0.1200E+02
    -13.053  0.0000E+00  0.1200E+02
    -12.707  0.0000E+00  0.1200E+02
    -12.361  0.0000E+00  0.1200E+02
    -12.016  0.0000E+00  0.1200E+02
    -11.670  0.0000E+00  0.1200E+02
    -11.324  0.0000E+00  0.1200E+02
    -10.978  0.0000E+00  0.1200E+02
    -10.632  0.0000E+00  0.1200E+02
    -10.287  0.0000E+00  0.1200E+02
     -9.941  0.9036E-01  0.1380E+02
     -9.595  0.0000E+00  0.1400E+02
     -9.249  0.0000E+00  0.1400E+02
     -8.903  0.0000E+00  0.1400E+02
     -8.557  0.0000E+00  0.1400E+02
     -8.212  0.0000E+00  0.1400E+02
     -7.866  0.0000E+00  0.1400E+02
     -7.520  0.0000E+00  0.1400E+02
     -7.174  0.0000E+00  0.1400E+02
     -6.828  0.0000E+00  0.1400E+02
     -6.482  0.0000E+00  0.1400E+02
     -6.137  0.0000E+00  0.1400E+02
     -5.791  0.0000E+00  0.1400E+02
     -5.445  0.0000E+00  0.1400E+02
     -5.099  0.0000E+00  0.1400E+02
     -4.753  0.0000E+00  0.1400E+02
     -4.408  0.0000E+00  0.1400E+02
     -4.062  0.0000E+00  0.1400E+02
     -3.716  0.0000E+00  0.1400E+02
     -3.370  0.0000E+00  0.1400E+02
     -3.024  0.0000E+00  0.1400E+02
     -2.678  0.0000E+00  0.1400E+02
     -2.333  0.0000E+00  0.1400E+02
     -1.987  0.0000E+00  0.1400E+02
     -1.641  0.0000E+00  0.1400E+02
     -1.295  0.0000E+00  0.1400E+02
     -0.949  0.0000E+00  0.1421E+02
     -0.604  0.0000E+00  0.1546E+02
     -0.258  0.0000E+00  0.1575E+02
      0.088  0.0000E+00  0.1582E+02
      0.434  0.1355E+00  0.1634E+02
      0.780  0.0000E+00  0.1673E+02
      1.126  0.0000E+00  0.1720E+02
      1.471  0.0000E+00  0.1751E+02
      1.817  0.0000E+00  0.1772E+02
      2.163  0.0000E+00  0.1791E+02
      2.509  0.0000E+00  0.1799E+02
      2.855  0.0000E+00  0.1800E+02
      3.201  0.0000E+00  0.1800E+02
      3.546  0.0000E+00  0.1800E+02
      3.892  0.0000E+00  0.1800E+02
      4.238  0.0000E+00  0.1800E+02
      4.584  0.0000E+00  0.1800E+02
      4.930  0.0000E+00  0.1804E+02
      5.275  0.0000E+00  0.1806E+02
      5.621  0.0000E+00  0.1806E+02
      5.967  0.0000E+00  0.1811E+02
      6.313  0.0000E+00  0.1814E+02
      6.659  0.0000E+00  0.1829E+02
      7.005  0.2711E+00  0.1871E+02
      7.350  0.1355E+00  0.1909E+02
      7.696  0.0000E+00  0.1946E+02
      8.042  0.2640E-02  0.2000E+02
      8.388  0.0000E+00  0.2004E+02
      8.734  0.0000E+00  0.2018E+02
      9.079  0.0000E+00  0.2071E+02
      9.425  0.0000E+00  0.2123E+02
      9.771  0.0000E+00  0.2161E+02
     10.117  0.6769E-01  0.2196E+02
     10.463  0.0000E+00  0.2243E+02
     10.809  0.0000E+00  0.2319E+02
     11.154  0.0000E+00  0.2344E+02
     11.500  0.9036E-01  0.2392E+02
     11.846  0.0000E+00  0.2442E+02
     12.192  0.5426E-02  0.2476E+02
     12.538  0.0000E+00  0.2563E+02
     12.883  0.0000E+00  0.2588E+02
     13.229  0.0000E+00  0.2643E+02
     13.575  0.0000E+00  0.2699E+02
     13.921  0.0000E+00  0.2730E+02
     14.267  0.0000E+00  0.2811E+02
     14.613  0.0000E+00  0.2854E+02
     14.958  0.1130E-01  0.2896E+02
     15.304  0.0000E+00  0.2971E+02
     15.650  0.0000E+00  0.3011E+02
     15.996  0.0000E+00  0.3098E+02
     16.342  0.0000E+00  0.3143E+02
     16.688  0.0000E+00  0.3180E+02
     17.033  0.2699E+00  0.3210E+02
     17.379  0.0000E+00  0.3225E+02
     17.725  0.0000E+00  0.3298E+02
     18.071  0.0000E+00  0.3387E+02
     18.417  0.0000E+00  0.3489E+02
     18.762  0.2526E+00  0.3626E+02
     19.108  0.0000E+00  0.3783E+02
     19.454  0.3597E-01  0.3938E+02
     19.800  0.5562E-02  0.4146E+02
     20.146  0.7375E-01  0.4312E+02
     20.492  0.3562E+00  0.4494E+02
     20.837  0.2711E+00  0.4598E+02
     21.183  0.0000E+00  0.4624E+02
     21.529  0.0000E+00  0.4643E+02
     21.875  0.0000E+00  0.4657E+02
     22.221  0.0000E+00  0.4760E+02
     22.566  0.1726E-02  0.4779E+02
     22.912  0.0000E+00  0.4818E+02
     23.258  0.2711E+00  0.4882E+02
     23.604  0.0000E+00  0.4952E+02
     23.950  0.2801E-03  0.5030E+02
     24.296  0.0000E+00  0.5112E+02
     24.641  0.5714E-05  0.5207E+02
     24.987  0.2770E+00  0.5332E+02
     25.333  0.1050E+00  0.5453E+02
     25.679  0.2711E+00  0.5589E+02
     26.025  0.4914E-02  0.5646E+02
     26.371  0.0000E+00  0.5702E+02
     26.716  0.0000E+00  0.5740E+02
     27.062  0.0000E+00  0.5834E+02
     27.408  0.0000E+00  0.5928E+02
     27.754  0.0000E+00  0.5992E+02
     28.100  0.0000E+00  0.6040E+02
     28.445  0.0000E+00  0.6117E+02
     28.791  0.2711E+00  0.6145E+02
     29.137  0.0000E+00  0.6238E+02
     29.483  0.3389E-01  0.6266E+02
     29.829  0.1355E+00  0.6359E+02
     30.175  0.4454E-01  0.6462E+02
     30.520  0.4536E-03  0.6518E+02
     30.866  0.0000E+00  0.6580E+02
     31.212  0.0000E+00  0.6672E+02
     31.558  0.0000E+00  0.6729E+02
     31.904  0.0000E+00  0.6873E+02
     32.249  0.0000E+00  0.6961E+02
     32.595  0.0000E+00  0.7033E+02
     32.941  0.0000E+00  0.7182E+02
     33.287  0.0000E+00  0.7255E+02
     33.633  0.0000E+00  0.7314E+02
     33.979  0.0000E+00  0.7387E+02
     34.324  0.9961E-12  0.7477E+02
     34.670  0.0000E+00  0.7577E+02
     35.016  0.1806E-03  0.7683E+02
     35.362  0.6777E-01  0.7782E+02
     35.708  0.0000E+00  0.7879E+02
     36.053  0.0000E+00  0.7961E+02
     36.399  0.0000E+00  0.8040E+02
     36.745  0.0000E+00  0.8145E+02
     37.091  0.3493E-11  0.8270E+02
     37.437  0.2696E-16  0.8346E+02
     37.783  0.0000E+00  0.8388E+02
     38.128  0.5422E+00  0.8510E+02
     38.474  0.0000E+00  0.8585E+02
     38.820  0.0000E+00  0.8634E+02
     39.166  0.2711E+00  0.8718E+02
     39.512  0.2324E-02  0.8818E+02
     39.858  0.0000E+00  0.8881E+02
     40.203  0.0000E+00  0.8934E+02
     40.549  0.0000E+00  0.9048E+02
     40.895  0.2699E+00  0.9148E+02
     41.241  0.2033E+00  0.9280E+02
     41.587  0.6777E-01  0.9340E+02
     41.932  0.0000E+00  0.9409E+02
     42.278  0.1595E+00  0.9540E+02
     42.624  0.9036E-01  0.9671E+02
     42.970  0.3545E+00  0.9753E+02
     43.316  0.0000E+00  0.9823E+02
     43.662  0.0000E+00  0.9896E+02
     44.007  0.2711E+00  0.1001E+03
     44.353  0.2711E+00  0.1010E+03
     44.699  0.0000E+00  0.1016E+03
     45.045  0.0000E+00  0.1024E+03
     45.391  0.6777E-01  0.1035E+03
     45.736  0.2700E+00  0.1048E+03
     46.082  0.5928E-06  0.1059E+03
     46.428  0.3389E-01  0.1069E+03
     46.774  0.5764E+00  0.1078E+03
     47.120  0.0000E+00  0.1087E+03
     47.466  0.0000E+00  0.1100E+03
     47.811  0.0000E+00  0.1107E+03
     48.157  0.3848E-08  0.1117E+03
     48.503  0.1355E+00  0.1126E+03
     48.849  0.0000E+00  0.1138E+03
     49.195  0.9036E-01  0.1146E+03
     49.541  0.3389E-01  0.1159E+03
     49.886  0.0000E+00  0.1166E+03
     50.232  0.0000E+00  0.1179E+03
     50.578  0.0000E+00  0.1188E+03
     50.924  0.0000E+00  0.1200E+03
     51.270  0.5265E+00  0.1208E+03
     51.615  0.0000E+00  0.1219E+03
     51.961  0.0000E+00  0.1228E+03
     52.307  0.4323E-15  0.1239E+03
     52.653  0.4518E-01  0.1249E+03
     52.999  0.0000E+00  0.1258E+03
     53.345  0.8921E-05  0.1265E+03
     53.690  0.0000E+00  0.1278E+03
     54.036  0.0000E+00  0.1280E+03
     54.382  0.0000E+00  0.1280E+03
     54.728  0.0000E+00  0.1280E+03
     55.074  0.0000E+00  0.1280E+03
     55.419  0.0000E+00  0.1280E+03
     55.765  0.0000E+00  0.1280E+03
     56.111  0.0000E+00  0.1280E+03
     56.457  0.0000E+00  0.1280E+03
     56.803  0.0000E+00  0.1280E+03
     57.149  0.0000E+00  0.1280E+03
     57.494  0.0000E+00  0.1280E+03
     57.840  0.0000E+00  0.1280E+03
     58.186  0.0000E+00  0.1280E+03
     58.532  0.0000E+00  0.1280E+03
