    1    1    1    1
  0.5789729E+02  0.4342346E-09  0.4342346E-09  0.4342346E-09  0.1000000E-15
  1.000000000000000E-004
  CAR 
 Og_FCC                                  
     18    512    128
 
  0.0000000E+00  0.0000000E+00  0.0000000E+00  0.1953125E-02
    1      -40.492070   1.000000
    2      -40.492040   1.000000
    3      -40.491671   1.000000
    4      -40.491637   1.000000
    5      -32.968605   1.000000
    6      -32.968582   1.000000
    7      -32.968279   1.000000
    8      -32.968259   1.000000
    9      -32.961199   1.000000
   10      -32.961193   1.000000
   11      -25.216587   1.000000
   12      -25.216547   1.000000
   13       -9.773486   1.000000
   14       -9.773464   1.000000
   15        2.557525   1.000000
   16        2.557532   1.000000
   17        2.557794   1.000000
   18        2.557800   1.000000
   19        3.435324   0.000000
   20        3.435355   0.000000
   21       11.427049   0.000000
   22       11.427052   0.000000
   23       11.427626   0.000000
   24       11.427631   0.000000
   25       11.656414   0.000000
   26       11.656438   0.000000
   27       11.977708   0.000000
   28       11.977736   0.000000
   29       14.213978   0.000000
   30       14.214045   0.000000
   31       14.640210   0.000000
   32       14.640216   0.000000
   33       14.640231   0.000000
   34       14.640238   0.000000
   35       14.951523   0.000000
   36       14.951582   0.000000
   37       14.553662   0.000000
   38       14.554011   0.000000
   39       16.284256   0.000000
   40       16.284335   0.000000
   41       20.397570   0.000000
   42       20.397653   0.000000
   43       20.397738   0.000000
   44       20.398011   0.000000
   45       20.398096   0.000000
   46       20.398179   0.000000
   47       22.957589   0.000000
   48       22.957815   0.000000
   49       26.246450   0.000000
   50       26.246506   0.000000
   51       26.247079   0.000000
   52       26.247135   0.000000
   53       26.450630   0.000000
   54       26.450853   0.000000
   55       27.770213   0.000000
   56       27.770680   0.000000
   57       29.417163   0.000000
   58       29.417432   0.000000
   59       29.417656   0.000000
   60       29.417924   0.000000
   61       30.179337   0.000000
   62       30.179556   0.000000
   63       30.344181   0.000000
   64       30.344264   0.000000
   65       30.344541   0.000000
   66       30.344624   0.000000
   67       30.788360   0.000000
   68       30.788405   0.000000
   69       31.611958   0.000000
   70       31.611998   0.000000
   71       31.612362   0.000000
   72       31.612402   0.000000
   73       37.791974   0.000000
   74       37.792037   0.000000
   75       37.792174   0.000000
   76       37.792310   0.000000
   77       37.792447   0.000000
   78       37.792510   0.000000
   79       38.587214   0.000000
   80       38.587603   0.000000
   81       38.620029   0.000000
   82       38.620109   0.000000
   83       38.620416   0.000000
   84       38.620805   0.000000
   85       38.621112   0.000000
   86       38.621192   0.000000
   87       41.121060   0.000000
   88       41.121158   0.000000
   89       41.121215   0.000000
   90       41.121314   0.000000
   91       41.306272   0.000000
   92       41.306449   0.000000
   93       42.579616   0.000000
   94       42.579929   0.000000
   95       42.858498   0.000000
   96       42.858802   0.000000
   97       42.858990   0.000000
   98       42.859295   0.000000
   99       43.169866   0.000000
  100       43.169996   0.000000
  101       43.170188   0.000000
  102       43.170318   0.000000
  103       44.063061   0.000000
  104       44.063099   0.000000
  105       44.063710   0.000000
  106       44.063749   0.000000
  107       44.140905   0.000000
  108       44.141138   0.000000
  109       44.141292   0.000000
  110       44.141526   0.000000
  111       44.332842   0.000000
  112       44.333043   0.000000
  113       45.277105   0.000000
  114       45.277422   0.000000
  115       45.685236   0.000000
  116       45.685608   0.000000
  117       46.140414   0.000000
  118       46.140467   0.000000
  119       46.140806   0.000000
  120       46.140859   0.000000
  121       46.666231   0.000000
  122       46.666429   0.000000
  123       47.027157   0.000000
  124       47.027250   0.000000
  125       47.027425   0.000000
  126       47.027518   0.000000
  127       47.156605   0.000000
  128       47.156974   0.000000
 
  0.1250000E+00  0.1175195E-17  0.4163336E-16  0.1953125E-02
    1      -40.483753   1.000000
    2      -40.483742   1.000000
    3      -40.478926   1.000000
    4      -40.478918   1.000000
    5      -32.961637   1.000000
    6      -32.961632   1.000000
    7      -32.960815   1.000000
    8      -32.960804   1.000000
    9      -32.953217   1.000000
   10      -32.953207   1.000000
   11      -25.196630   1.000000
   12      -25.196592   1.000000
   13       -9.823512   1.000000
   14       -9.823484   1.000000
   15        1.213264   1.000000
   16        1.213409   1.000000
   17        2.442895   1.000000
   18        2.443120   1.000000
   19        4.853211   0.000000
   20        4.853272   0.000000
   21       10.505596   0.000000
   22       10.505617   0.000000
   23       11.613079   0.000000
   24       11.613117   0.000000
   25       11.746605   0.000000
   26       11.746623   0.000000
   27       13.137433   0.000000
   28       13.137448   0.000000
   29       13.409979   0.000000
   30       13.410301   0.000000
   31       13.537779   0.000000
   32       13.538065   0.000000
   33       14.127018   0.000000
   34       14.127044   0.000000
   35       16.415735   0.000000
   36       16.416339   0.000000
   37       16.164513   0.000000
   38       16.165710   0.000000
   39       17.675582   0.000000
   40       17.675710   0.000000
   41       20.153637   0.000000
   42       20.154117   0.000000
   43       20.217324   0.000000
   44       20.217883   0.000000
   45       20.457310   0.000000
   46       20.457576   0.000000
   47       22.269496   0.000000
   48       22.269581   0.000000
   49       25.564637   0.000000
   50       25.564988   0.000000
   51       25.862027   0.000000
   52       25.862674   0.000000
   53       26.144476   0.000000
   54       26.144898   0.000000
   55       27.320563   0.000000
   56       27.320904   0.000000
   57       28.311559   0.000000
   58       28.311728   0.000000
   59       29.076519   0.000000
   60       29.076809   0.000000
   61       29.991884   0.000000
   62       29.992256   0.000000
   63       29.992567   0.000000
   64       29.993184   0.000000
   65       30.717897   0.000000
   66       30.718076   0.000000
   67       30.836409   0.000000
   68       30.836490   0.000000
   69       32.682087   0.000000
   70       32.682589   0.000000
   71       34.826870   0.000000
   72       34.827234   0.000000
   73       36.062682   0.000000
   74       36.063041   0.000000
   75       36.767149   0.000000
   76       36.767451   0.000000
   77       36.848792   0.000000
   78       36.849230   0.000000
   79       37.240046   0.000000
   80       37.240197   0.000000
   81       39.136534   0.000000
   82       39.136645   0.000000
   83       39.176848   0.000000
   84       39.177568   0.000000
   85       39.626919   0.000000
   86       39.627007   0.000000
   87       40.108554   0.000000
   88       40.108715   0.000000
   89       40.397681   0.000000
   90       40.397852   0.000000
   91       40.726654   0.000000
   92       40.726948   0.000000
   93       40.824861   0.000000
   94       40.825092   0.000000
   95       40.973087   0.000000
   96       40.973605   0.000000
   97       41.632474   0.000000
   98       41.632817   0.000000
   99       42.872848   0.000000
  100       42.873038   0.000000
  101       43.161656   0.000000
  102       43.161809   0.000000
  103       43.438253   0.000000
  104       43.438529   0.000000
  105       43.971591   0.000000
  106       43.971806   0.000000
  107       44.652228   0.000000
  108       44.652710   0.000000
  109       44.769271   0.000000
  110       44.769575   0.000000
  111       44.915598   0.000000
  112       44.915744   0.000000
  113       45.913935   0.000000
  114       45.914317   0.000000
  115       46.171336   0.000000
  116       46.171545   0.000000
  117       46.704505   0.000000
  118       46.704858   0.000000
  119       47.569595   0.000000
  120       47.569917   0.000000
  121       48.511216   0.000000
  122       48.511381   0.000000
  123       48.658079   0.000000
  124       48.658456   0.000000
  125       49.209336   0.000000
  126       49.209647   0.000000
  127       51.420046   0.000000
  128       51.420329   0.000000
 
  0.2500000E+00  0.2350390E-17  0.8326673E-16  0.1953125E-02
    1      -40.483511   1.000000
    2      -40.483509   1.000000
    3      -40.480143   1.000000
    4      -40.480119   1.000000
    5      -32.958812   1.000000
    6      -32.958801   1.000000
    7      -32.954271   1.000000
    8      -32.954266   1.000000
    9      -32.952740   1.000000
   10      -32.952733   1.000000
   11      -25.148769   1.000000
   12      -25.148727   1.000000
   13       -9.945525   1.000000
   14       -9.945503   1.000000
   15       -0.030709   1.000000
   16       -0.030581   1.000000
   17        2.194788   1.000000
   18        2.195002   1.000000
   19        6.017211   0.000000
   20        6.017245   0.000000
   21       10.349533   0.000000
   22       10.349574   0.000000
   23       11.493465   0.000000
   24       11.493632   0.000000
   25       11.687129   0.000000
   26       11.687153   0.000000
   27       12.343586   0.000000
   28       12.343602   0.000000
   29       13.413827   0.000000
   30       13.413903   0.000000
   31       13.656434   0.000000
   32       13.656678   0.000000
   33       16.370316   0.000000
   34       16.370339   0.000000
   35       18.460729   0.000000
   36       18.460821   0.000000
   37       18.236494   0.000000
   38       18.237855   0.000000
   39       20.489287   0.000000
   40       20.489709   0.000000
   41       19.498454   0.000000
   42       19.499008   0.000000
   43       19.560522   0.000000
   44       19.560669   0.000000
   45       20.548775   0.000000
   46       20.549046   0.000000
   47       20.562636   0.000000
   48       20.563082   0.000000
   49       24.195253   0.000000
   50       24.195274   0.000000
   51       25.368915   0.000000
   52       25.369514   0.000000
   53       25.600865   0.000000
   54       25.601326   0.000000
   55       26.874805   0.000000
   56       26.875190   0.000000
   57       27.265594   0.000000
   58       27.265739   0.000000
   59       28.077421   0.000000
   60       28.077682   0.000000
   61       30.329186   0.000000
   62       30.329383   0.000000
   63       30.667969   0.000000
   64       30.668655   0.000000
   65       31.262468   0.000000
   66       31.262565   0.000000
   67       31.587459   0.000000
   68       31.587610   0.000000
   69       32.722425   0.000000
   70       32.722984   0.000000
   71       33.661124   0.000000
   72       33.661230   0.000000
   73       34.449119   0.000000
   74       34.449493   0.000000
   75       35.570026   0.000000
   76       35.570136   0.000000
   77       36.330125   0.000000
   78       36.330538   0.000000
   79       36.419102   0.000000
   80       36.419244   0.000000
   81       36.877214   0.000000
   82       36.877420   0.000000
   83       37.442354   0.000000
   84       37.442969   0.000000
   85       39.157244   0.000000
   86       39.157434   0.000000
   87       39.370384   0.000000
   88       39.370866   0.000000
   89       39.411607   0.000000
   90       39.411951   0.000000
   91       40.691529   0.000000
   92       40.691721   0.000000
   93       40.794002   0.000000
   94       40.794175   0.000000
   95       41.406247   0.000000
   96       41.406660   0.000000
   97       42.599856   0.000000
   98       42.600244   0.000000
   99       42.924224   0.000000
  100       42.924462   0.000000
  101       43.339025   0.000000
  102       43.339282   0.000000
  103       43.563634   0.000000
  104       43.563781   0.000000
  105       43.977775   0.000000
  106       43.977970   0.000000
  107       45.126569   0.000000
  108       45.126710   0.000000
  109       45.295921   0.000000
  110       45.296423   0.000000
  111       45.332034   0.000000
  112       45.332474   0.000000
  113       47.105122   0.000000
  114       47.105448   0.000000
  115       49.519820   0.000000
  116       49.520002   0.000000
  117       49.852239   0.000000
  118       49.852506   0.000000
  119       50.245890   0.000000
  120       50.246102   0.000000
  121       50.752454   0.000000
  122       50.752812   0.000000
  123       50.859915   0.000000
  124       50.860298   0.000000
  125       50.946804   0.000000
  126       50.947275   0.000000
  127       51.689449   0.000000
  128       51.689596   0.000000
 
  0.3750000E+00  0.5903674E-16  0.8326673E-16  0.1953125E-02
    1      -40.483906   1.000000
    2      -40.483904   1.000000
    3      -40.477476   1.000000
    4      -40.477469   1.000000
    5      -32.958197   1.000000
    6      -32.958184   1.000000
    7      -32.951702   1.000000
    8      -32.951697   1.000000
    9      -32.948897   1.000000
   10      -32.948888   1.000000
   11      -25.099890   1.000000
   12      -25.099850   1.000000
   13      -10.069104   1.000000
   14      -10.069083   1.000000
   15       -0.791232   1.000000
   16       -0.791106   1.000000
   17        1.976513   1.000000
   18        1.976720   1.000000
   19        6.332687   0.000000
   20        6.332699   0.000000
   21       10.913942   0.000000
   22       10.913974   0.000000
   23       11.028609   0.000000
   24       11.028894   0.000000
   25       11.292624   0.000000
   26       11.292630   0.000000
   27       12.143306   0.000000
   28       12.143352   0.000000
   29       14.650538   0.000000
   30       14.650624   0.000000
   31       14.992086   0.000000
   32       14.992332   0.000000
   33       17.972805   0.000000
   34       17.972900   0.000000
   35       19.474905   0.000000
   36       19.475010   0.000000
   37       19.158550   0.000000
   38       19.159324   0.000000
   39       19.177919   0.000000
   40       19.179326   0.000000
   41       18.496931   0.000000
   42       18.497483   0.000000
   43       18.629053   0.000000
   44       18.629736   0.000000
   45       20.651550   0.000000
   46       20.651828   0.000000
   47       21.915608   0.000000
   48       21.915739   0.000000
   49       24.045270   0.000000
   50       24.045348   0.000000
   51       25.068958   0.000000
   52       25.069293   0.000000
   53       25.379777   0.000000
   54       25.380221   0.000000
   55       26.171396   0.000000
   56       26.171636   0.000000
   57       27.044767   0.000000
   58       27.044959   0.000000
   59       27.495042   0.000000
   60       27.495347   0.000000
   61       29.213667   0.000000
   62       29.213768   0.000000
   63       30.664979   0.000000
   64       30.665120   0.000000
   65       31.078700   0.000000
   66       31.079379   0.000000
   67       31.827761   0.000000
   68       31.828320   0.000000
   69       32.108986   0.000000
   70       32.109135   0.000000
   71       32.175965   0.000000
   72       32.176155   0.000000
   73       32.989963   0.000000
   74       32.990202   0.000000
   75       33.417571   0.000000
   76       33.417959   0.000000
   77       34.498548   0.000000
   78       34.499000   0.000000
   79       35.017822   0.000000
   80       35.018471   0.000000
   81       35.929460   0.000000
   82       35.929695   0.000000
   83       36.560011   0.000000
   84       36.560428   0.000000
   85       39.356326   0.000000
   86       39.356820   0.000000
   87       39.395123   0.000000
   88       39.395423   0.000000
   89       40.259476   0.000000
   90       40.259516   0.000000
   91       40.496092   0.000000
   92       40.496367   0.000000
   93       40.826627   0.000000
   94       40.826785   0.000000
   95       42.013508   0.000000
   96       42.013626   0.000000
   97       42.619042   0.000000
   98       42.619220   0.000000
   99       43.600112   0.000000
  100       43.600478   0.000000
  101       44.829229   0.000000
  102       44.829606   0.000000
  103       45.292249   0.000000
  104       45.292348   0.000000
  105       45.625718   0.000000
  106       45.625914   0.000000
  107       46.694790   0.000000
  108       46.694829   0.000000
  109       46.727627   0.000000
  110       46.727841   0.000000
  111       47.374238   0.000000
  112       47.374612   0.000000
  113       47.499689   0.000000
  114       47.500124   0.000000
  115       49.187444   0.000000
  116       49.187695   0.000000
  117       51.180599   0.000000
  118       51.180827   0.000000
  119       51.655675   0.000000
  120       51.656057   0.000000
  121       52.166488   0.000000
  122       52.166691   0.000000
  123       52.476794   0.000000
  124       52.476996   0.000000
  125       53.392253   0.000000
  126       53.392440   0.000000
  127       53.757688   0.000000
  128       53.757918   0.000000
 
  0.5000000E+00  0.4700780E-17  0.1665335E-15  0.1953125E-02
    1      -40.498490   1.000000
    2      -40.498488   1.000000
    3      -40.488028   1.000000
    4      -40.488022   1.000000
    5      -32.966117   1.000000
    6      -32.966093   1.000000
    7      -32.965188   1.000000
    8      -32.965182   1.000000
    9      -32.958226   1.000000
   10      -32.958219   1.000000
   11      -25.079800   1.000000
   12      -25.079759   1.000000
   13      -10.120519   1.000000
   14      -10.120497   1.000000
   15       -1.045776   1.000000
   16       -1.045650   1.000000
   17        1.892451   1.000000
   18        1.892665   1.000000
   19        6.342195   0.000000
   20        6.342208   0.000000
   21       10.836846   0.000000
   22       10.837188   0.000000
   23       11.007133   0.000000
   24       11.007154   0.000000
   25       11.041795   0.000000
   26       11.041801   0.000000
   27       12.777107   0.000000
   28       12.777180   0.000000
   29       16.004621   0.000000
   30       16.004684   0.000000
   31       16.248235   0.000000
   32       16.248364   0.000000
   33       16.771093   0.000000
   34       16.771111   0.000000
   35       17.816262   0.000000
   36       17.816280   0.000000
   37       17.538115   0.000000
   38       17.539002   0.000000
   39       20.290772   0.000000
   40       20.291480   0.000000
   41       19.034452   0.000000
   42       19.035293   0.000000
   43       19.088637   0.000000
   44       19.089165   0.000000
   45       20.689548   0.000000
   46       20.689828   0.000000
   47       23.276308   0.000000
   48       23.276578   0.000000
   49       23.979497   0.000000
   50       23.979900   0.000000
   51       25.332328   0.000000
   52       25.332448   0.000000
   53       25.480142   0.000000
   54       25.480449   0.000000
   55       25.531905   0.000000
   56       25.532222   0.000000
   57       27.013033   0.000000
   58       27.013292   0.000000
   59       27.293605   0.000000
   60       27.293963   0.000000
   61       28.374708   0.000000
   62       28.374752   0.000000
   63       29.489436   0.000000
   64       29.489564   0.000000
   65       30.845061   0.000000
   66       30.845248   0.000000
   67       30.874628   0.000000
   68       30.875256   0.000000
   69       31.725219   0.000000
   70       31.725872   0.000000
   71       32.453049   0.000000
   72       32.453111   0.000000
   73       32.860917   0.000000
   74       32.861072   0.000000
   75       33.057937   0.000000
   76       33.058331   0.000000
   77       33.952995   0.000000
   78       33.953485   0.000000
   79       34.042811   0.000000
   80       34.043480   0.000000
   81       35.875693   0.000000
   82       35.875904   0.000000
   83       36.687991   0.000000
   84       36.688393   0.000000
   85       39.548852   0.000000
   86       39.549174   0.000000
   87       39.679103   0.000000
   88       39.679781   0.000000
   89       39.774248   0.000000
   90       39.774471   0.000000
   91       40.242321   0.000000
   92       40.242638   0.000000
   93       40.561578   0.000000
   94       40.561874   0.000000
   95       41.939695   0.000000
   96       41.940107   0.000000
   97       42.189673   0.000000
   98       42.189696   0.000000
   99       44.897742   0.000000
  100       44.897950   0.000000
  101       46.094729   0.000000
  102       46.094954   0.000000
  103       46.249342   0.000000
  104       46.249619   0.000000
  105       46.438775   0.000000
  106       46.439051   0.000000
  107       46.588820   0.000000
  108       46.588985   0.000000
  109       47.729334   0.000000
  110       47.729606   0.000000
  111       49.454145   0.000000
  112       49.454399   0.000000
  113       50.040116   0.000000
  114       50.040422   0.000000
  115       50.221533   0.000000
  116       50.221933   0.000000
  117       50.948627   0.000000
  118       50.949100   0.000000
  119       51.303511   0.000000
  120       51.303830   0.000000
  121       51.503186   0.000000
  122       51.503210   0.000000
  123       52.645619   0.000000
  124       52.646101   0.000000
  125       52.696604   0.000000
  126       52.696906   0.000000
  127       52.846852   0.000000
  128       52.847396   0.000000
 
 -0.3750000E+00 -0.5903674E-16 -0.8326673E-16  0.1953125E-02
    1      -40.483899   1.000000
    2      -40.483895   1.000000
    3      -40.477468   1.000000
    4      -40.477461   1.000000
    5      -32.958185   1.000000
    6      -32.958174   1.000000
    7      -32.951696   1.000000
    8      -32.951692   1.000000
    9      -32.948887   1.000000
   10      -32.948879   1.000000
   11      -25.099890   1.000000
   12      -25.099849   1.000000
   13      -10.069105   1.000000
   14      -10.069084   1.000000
   15       -0.791232   1.000000
   16       -0.791106   1.000000
   17        1.976512   1.000000
   18        1.976719   1.000000
   19        6.332686   0.000000
   20        6.332699   0.000000
   21       10.913942   0.000000
   22       10.913974   0.000000
   23       11.028610   0.000000
   24       11.028894   0.000000
   25       11.292624   0.000000
   26       11.292630   0.000000
   27       12.143306   0.000000
   28       12.143352   0.000000
   29       14.650539   0.000000
   30       14.650625   0.000000
   31       14.992087   0.000000
   32       14.992333   0.000000
   33       17.972805   0.000000
   34       17.972901   0.000000
   35       19.474905   0.000000
   36       19.475011   0.000000
   37       19.158558   0.000000
   38       19.159331   0.000000
   39       19.177913   0.000000
   40       19.179320   0.000000
   41       18.496931   0.000000
   42       18.497483   0.000000
   43       18.629053   0.000000
   44       18.629736   0.000000
   45       20.651550   0.000000
   46       20.651828   0.000000
   47       21.915608   0.000000
   48       21.915739   0.000000
   49       24.045270   0.000000
   50       24.045348   0.000000
   51       25.068958   0.000000
   52       25.069293   0.000000
   53       25.379777   0.000000
   54       25.380221   0.000000
   55       26.171396   0.000000
   56       26.171636   0.000000
   57       27.044767   0.000000
   58       27.044959   0.000000
   59       27.495042   0.000000
   60       27.495347   0.000000
   61       29.213667   0.000000
   62       29.213768   0.000000
   63       30.664979   0.000000
   64       30.665120   0.000000
   65       31.078700   0.000000
   66       31.079379   0.000000
   67       31.827761   0.000000
   68       31.828320   0.000000
   69       32.108986   0.000000
   70       32.109135   0.000000
   71       32.175965   0.000000
   72       32.176155   0.000000
   73       32.989963   0.000000
   74       32.990202   0.000000
   75       33.417571   0.000000
   76       33.417959   0.000000
   77       34.498548   0.000000
   78       34.499000   0.000000
   79       35.017822   0.000000
   80       35.018471   0.000000
   81       35.929460   0.000000
   82       35.929695   0.000000
   83       36.560011   0.000000
   84       36.560428   0.000000
   85       39.356326   0.000000
   86       39.356820   0.000000
   87       39.395123   0.000000
   88       39.395423   0.000000
   89       40.259476   0.000000
   90       40.259516   0.000000
   91       40.496092   0.000000
   92       40.496367   0.000000
   93       40.826627   0.000000
   94       40.826785   0.000000
   95       42.013508   0.000000
   96       42.013627   0.000000
   97       42.619042   0.000000
   98       42.619220   0.000000
   99       43.600112   0.000000
  100       43.600478   0.000000
  101       44.829229   0.000000
  102       44.829606   0.000000
  103       45.292249   0.000000
  104       45.292348   0.000000
  105       45.625718   0.000000
  106       45.625914   0.000000
  107       46.694790   0.000000
  108       46.694829   0.000000
  109       46.727627   0.000000
  110       46.727841   0.000000
  111       47.374238   0.000000
  112       47.374612   0.000000
  113       47.499689   0.000000
  114       47.500124   0.000000
  115       49.187444   0.000000
  116       49.187695   0.000000
  117       51.180599   0.000000
  118       51.180827   0.000000
  119       51.655675   0.000000
  120       51.656057   0.000000
  121       52.166488   0.000000
  122       52.166691   0.000000
  123       52.476794   0.000000
  124       52.476996   0.000000
  125       53.392253   0.000000
  126       53.392441   0.000000
  127       53.757688   0.000000
  128       53.757918   0.000000
 
 -0.2500000E+00 -0.2350390E-17 -0.8326673E-16  0.1953125E-02
    1      -40.483505   1.000000
    2      -40.483503   1.000000
    3      -40.480140   1.000000
    4      -40.480127   1.000000
    5      -32.958809   1.000000
    6      -32.958799   1.000000
    7      -32.954265   1.000000
    8      -32.954260   1.000000
    9      -32.952734   1.000000
   10      -32.952727   1.000000
   11      -25.148769   1.000000
   12      -25.148727   1.000000
   13       -9.945526   1.000000
   14       -9.945504   1.000000
   15       -0.030709   1.000000
   16       -0.030581   1.000000
   17        2.194788   1.000000
   18        2.195002   1.000000
   19        6.017210   0.000000
   20        6.017245   0.000000
   21       10.349533   0.000000
   22       10.349574   0.000000
   23       11.493466   0.000000
   24       11.493632   0.000000
   25       11.687129   0.000000
   26       11.687153   0.000000
   27       12.343586   0.000000
   28       12.343602   0.000000
   29       13.413827   0.000000
   30       13.413904   0.000000
   31       13.656434   0.000000
   32       13.656679   0.000000
   33       16.370316   0.000000
   34       16.370339   0.000000
   35       18.460730   0.000000
   36       18.460821   0.000000
   37       18.236497   0.000000
   38       18.237858   0.000000
   39       20.489290   0.000000
   40       20.489712   0.000000
   41       19.498454   0.000000
   42       19.499008   0.000000
   43       19.560522   0.000000
   44       19.560669   0.000000
   45       20.548775   0.000000
   46       20.549046   0.000000
   47       20.562636   0.000000
   48       20.563082   0.000000
   49       24.195253   0.000000
   50       24.195273   0.000000
   51       25.368915   0.000000
   52       25.369514   0.000000
   53       25.600865   0.000000
   54       25.601326   0.000000
   55       26.874805   0.000000
   56       26.875190   0.000000
   57       27.265594   0.000000
   58       27.265740   0.000000
   59       28.077421   0.000000
   60       28.077682   0.000000
   61       30.329186   0.000000
   62       30.329383   0.000000
   63       30.667969   0.000000
   64       30.668655   0.000000
   65       31.262468   0.000000
   66       31.262565   0.000000
   67       31.587459   0.000000
   68       31.587610   0.000000
   69       32.722425   0.000000
   70       32.722984   0.000000
   71       33.661124   0.000000
   72       33.661230   0.000000
   73       34.449119   0.000000
   74       34.449493   0.000000
   75       35.570026   0.000000
   76       35.570136   0.000000
   77       36.330125   0.000000
   78       36.330538   0.000000
   79       36.419102   0.000000
   80       36.419244   0.000000
   81       36.877214   0.000000
   82       36.877421   0.000000
   83       37.442354   0.000000
   84       37.442969   0.000000
   85       39.157244   0.000000
   86       39.157434   0.000000
   87       39.370384   0.000000
   88       39.370866   0.000000
   89       39.411607   0.000000
   90       39.411951   0.000000
   91       40.691529   0.000000
   92       40.691721   0.000000
   93       40.794002   0.000000
   94       40.794174   0.000000
   95       41.406247   0.000000
   96       41.406660   0.000000
   97       42.599856   0.000000
   98       42.600244   0.000000
   99       42.924224   0.000000
  100       42.924462   0.000000
  101       43.339025   0.000000
  102       43.339282   0.000000
  103       43.563634   0.000000
  104       43.563781   0.000000
  105       43.977775   0.000000
  106       43.977969   0.000000
  107       45.126569   0.000000
  108       45.126710   0.000000
  109       45.295921   0.000000
  110       45.296423   0.000000
  111       45.332034   0.000000
  112       45.332474   0.000000
  113       47.105122   0.000000
  114       47.105448   0.000000
  115       49.519820   0.000000
  116       49.520002   0.000000
  117       49.852239   0.000000
  118       49.852506   0.000000
  119       50.245890   0.000000
  120       50.246102   0.000000
  121       50.752454   0.000000