   1   1   0   0
  0.5789729E+02  0.4342346E-09  0.4342346E-09  0.4342346E-09  0.1000000E-15
  1.000000000000000E-004
  CAR 
 Og_FCC                                  
     47.79870545    -34.20450937  301      3.96099059      1.00000000
    -34.205  0.0000E+00  0.0000E+00
    -33.931  0.0000E+00  0.0000E+00
    -33.658  0.0000E+00  0.0000E+00
    -33.384  0.0000E+00  0.0000E+00
    -33.111  0.0000E+00  0.0000E+00
    -32.838  0.0000E+00  0.0000E+00
    -32.564  0.0000E+00  0.0000E+00
    -32.291  0.0000E+00  0.0000E+00
    -32.018  0.0000E+00  0.0000E+00
    -31.744  0.0000E+00  0.0000E+00
    -31.471  0.0000E+00  0.0000E+00
    -31.198  0.0000E+00  0.0000E+00
    -30.924  0.0000E+00  0.0000E+00
    -30.651  0.0000E+00  0.0000E+00
    -30.378  0.0000E+00  0.4000E+01
    -30.104  0.0000E+00  0.4000E+01
    -29.831  0.0000E+00  0.4000E+01
    -29.558  0.0000E+00  0.4000E+01
    -29.284  0.0000E+00  0.4000E+01
    -29.011  0.0000E+00  0.4000E+01
    -28.738  0.0000E+00  0.4000E+01
    -28.464  0.0000E+00  0.4000E+01
    -28.191  0.0000E+00  0.4000E+01
    -27.918  0.0000E+00  0.4000E+01
    -27.644  0.0000E+00  0.4000E+01
    -27.371  0.0000E+00  0.4000E+01
    -27.098  0.0000E+00  0.4000E+01
    -26.824  0.0000E+00  0.4000E+01
    -26.551  0.0000E+00  0.4000E+01
    -26.278  0.0000E+00  0.4000E+01
    -26.004  0.0000E+00  0.4000E+01
    -25.731  0.0000E+00  0.4000E+01
    -25.457  0.0000E+00  0.4000E+01
    -25.184  0.0000E+00  0.4000E+01
    -24.911  0.0000E+00  0.4000E+01
    -24.637  0.0000E+00  0.4000E+01
    -24.364  0.0000E+00  0.4000E+01
    -24.091  0.0000E+00  0.4000E+01
    -23.817  0.0000E+00  0.4000E+01
    -23.544  0.0000E+00  0.1000E+02
    -23.271  0.0000E+00  0.1000E+02
    -22.997  0.0000E+00  0.1000E+02
    -22.724  0.0000E+00  0.1000E+02
    -22.451  0.0000E+00  0.1000E+02
    -22.177  0.0000E+00  0.1000E+02
    -21.904  0.0000E+00  0.1000E+02
    -21.631  0.0000E+00  0.1000E+02
    -21.357  0.0000E+00  0.1000E+02
    -21.084  0.0000E+00  0.1000E+02
    -20.811  0.0000E+00  0.1000E+02
    -20.537  0.0000E+00  0.1000E+02
    -20.264  0.0000E+00  0.1000E+02
    -19.991  0.0000E+00  0.1200E+02
    -19.717  0.0000E+00  0.1200E+02
    -19.444  0.0000E+00  0.1200E+02
    -19.171  0.0000E+00  0.1200E+02
    -18.897  0.0000E+00  0.1200E+02
    -18.624  0.0000E+00  0.1200E+02
    -18.351  0.0000E+00  0.1200E+02
    -18.077  0.0000E+00  0.1200E+02
    -17.804  0.0000E+00  0.1200E+02
    -17.531  0.0000E+00  0.1200E+02
    -17.257  0.0000E+00  0.1200E+02
    -16.984  0.0000E+00  0.1200E+02
    -16.710  0.0000E+00  0.1200E+02
    -16.437  0.0000E+00  0.1200E+02
    -16.164  0.0000E+00  0.1200E+02
    -15.890  0.0000E+00  0.1200E+02
    -15.617  0.0000E+00  0.1200E+02
    -15.344  0.0000E+00  0.1200E+02
    -15.070  0.0000E+00  0.1200E+02
    -14.797  0.0000E+00  0.1200E+02
    -14.524  0.0000E+00  0.1200E+02
    -14.250  0.0000E+00  0.1200E+02
    -13.977  0.0000E+00  0.1200E+02
    -13.704  0.0000E+00  0.1200E+02
    -13.430  0.0000E+00  0.1200E+02
    -13.157  0.0000E+00  0.1200E+02
    -12.884  0.0000E+00  0.1200E+02
    -12.610  0.0000E+00  0.1200E+02
    -12.337  0.0000E+00  0.1200E+02
    -12.064  0.0000E+00  0.1200E+02
    -11.790  0.0000E+00  0.1200E+02
    -11.517  0.0000E+00  0.1200E+02
    -11.244  0.0000E+00  0.1200E+02
    -10.970  0.0000E+00  0.1200E+02
    -10.697  0.0000E+00  0.1200E+02
    -10.424  0.0000E+00  0.1200E+02
    -10.150  0.0000E+00  0.1200E+02
     -9.877  0.0000E+00  0.1200E+02
     -9.604  0.0000E+00  0.1200E+02
     -9.330  0.0000E+00  0.1200E+02
     -9.057  0.0000E+00  0.1200E+02
     -8.784  0.0000E+00  0.1200E+02
     -8.510  0.0000E+00  0.1200E+02
     -8.237  0.0000E+00  0.1200E+02
     -7.963  0.0000E+00  0.1200E+02
     -7.690  0.0000E+00  0.1200E+02
     -7.417  0.0000E+00  0.1200E+02
     -7.143  0.0000E+00  0.1375E+02
     -6.870  0.0000E+00  0.1400E+02
     -6.597  0.0000E+00  0.1400E+02
     -6.323  0.0000E+00  0.1400E+02
     -6.050  0.0000E+00  0.1400E+02
     -5.777  0.0000E+00  0.1400E+02
     -5.503  0.0000E+00  0.1400E+02
     -5.230  0.0000E+00  0.1400E+02
     -4.957  0.0000E+00  0.1400E+02
     -4.683  0.0000E+00  0.1400E+02
     -4.410  0.0000E+00  0.1400E+02
     -4.137  0.0000E+00  0.1400E+02
     -3.863  0.0000E+00  0.1400E+02
     -3.590  0.0000E+00  0.1400E+02
     -3.317  0.0000E+00  0.1400E+02
     -3.043  0.0000E+00  0.1400E+02
     -2.770  0.0000E+00  0.1400E+02
     -2.497  0.0000E+00  0.1400E+02
     -2.223  0.0000E+00  0.1400E+02
     -1.950  0.0000E+00  0.1400E+02
     -1.677  0.0000E+00  0.1400E+02
     -1.403  0.0000E+00  0.1400E+02
     -1.130  0.0000E+00  0.1400E+02
     -0.857  0.0000E+00  0.1400E+02
     -0.583  0.0000E+00  0.1400E+02
     -0.310  0.0000E+00  0.1400E+02
     -0.037  0.0000E+00  0.1400E+02
      0.237  0.0000E+00  0.1400E+02
      0.510  0.0000E+00  0.1400E+02
      0.784  0.6040E-02  0.1407E+02
      1.057  0.0000E+00  0.1540E+02
      1.330  0.0000E+00  0.1575E+02
      1.604  0.0000E+00  0.1586E+02
      1.877  0.0000E+00  0.1597E+02
      2.150  0.0000E+00  0.1636E+02
      2.424  0.0000E+00  0.1691E+02
      2.697  0.1347E-07  0.1696E+02
      2.970  0.0000E+00  0.1741E+02
      3.244  0.0000E+00  0.1763E+02
      3.517  0.4765E-14  0.1783E+02
      3.790  0.0000E+00  0.1792E+02
      4.064  0.0000E+00  0.1801E+02
      4.337  0.0000E+00  0.1801E+02
      4.610  0.0000E+00  0.1801E+02
      4.884  0.0000E+00  0.1801E+02
      5.157  0.0000E+00  0.1801E+02
      5.430  0.0000E+00  0.1801E+02
      5.704  0.0000E+00  0.1808E+02
      5.977  0.0000E+00  0.1808E+02
      6.250  0.0000E+00  0.1825E+02
      6.524  0.0000E+00  0.1828E+02
      6.797  0.0000E+00  0.1839E+02
      7.070  0.0000E+00  0.1889E+02
      7.344  0.0000E+00  0.1944E+02
      7.617  0.5567E+00  0.1971E+02
      7.890  0.0000E+00  0.2003E+02
      8.164  0.0000E+00  0.2008E+02
      8.437  0.0000E+00  0.2031E+02
      8.711  0.0000E+00  0.2031E+02
      8.984  0.0000E+00  0.2119E+02
      9.257  0.0000E+00  0.2169E+02
      9.531  0.0000E+00  0.2203E+02
      9.804  0.0000E+00  0.2225E+02
     10.077  0.0000E+00  0.2238E+02
     10.351  0.3321E+00  0.2273E+02
     10.624  0.0000E+00  0.2355E+02
     10.897  0.8469E-01  0.2385E+02
     11.171  0.0000E+00  0.2401E+02
     11.444  0.0000E+00  0.2489E+02
     11.717  0.3952E+00  0.2555E+02
     11.991  0.0000E+00  0.2567E+02
     12.264  0.0000E+00  0.2606E+02
     12.537  0.2644E-06  0.2613E+02
     12.811  0.0000E+00  0.2659E+02
     13.084  0.0000E+00  0.2748E+02
     13.357  0.0000E+00  0.2756E+02
     13.631  0.0000E+00  0.2860E+02
     13.904  0.0000E+00  0.2895E+02
     14.177  0.0000E+00  0.2968E+02
     14.451  0.0000E+00  0.3019E+02
     14.724  0.0000E+00  0.3051E+02
     14.997  0.0000E+00  0.3077E+02
     15.271  0.2635E+00  0.3117E+02
     15.544  0.0000E+00  0.3182E+02
     15.817  0.1559E+00  0.3192E+02
     16.091  0.0000E+00  0.3258E+02
     16.364  0.0000E+00  0.3307E+02
     16.637  0.0000E+00  0.3346E+02
     16.911  0.0000E+00  0.3409E+02
     17.184  0.0000E+00  0.3457E+02
     17.458  0.7311E-03  0.3489E+02
     17.731  0.0000E+00  0.3610E+02
     18.004  0.3265E-08  0.3668E+02
     18.278  0.8119E+00  0.3783E+02
     18.551  0.0000E+00  0.3914E+02
     18.824  0.4065E+00  0.4105E+02
     19.098  0.1694E-01  0.4158E+02
     19.371  0.1104E-02  0.4197E+02
     19.644  0.0000E+00  0.4319E+02
     19.918  0.1935E+00  0.4347E+02
     20.191  0.0000E+00  0.4412E+02
     20.464  0.1449E-06  0.4515E+02
     20.738  0.0000E+00  0.4556E+02
     21.011  0.0000E+00  0.4600E+02
     21.284  0.0000E+00  0.4641E+02
     21.558  0.0000E+00  0.4646E+02
     21.831  0.0000E+00  0.4670E+02
     22.104  0.0000E+00  0.4718E+02
     22.378  0.0000E+00  0.4762E+02
     22.651  0.0000E+00  0.4795E+02
     22.924  0.0000E+00  0.4831E+02
     23.198  0.1268E-03  0.4882E+02
     23.471  0.8010E+00  0.4933E+02
     23.744  0.1080E-02  0.5000E+02
     24.018  0.0000E+00  0.5050E+02
     24.291  0.0000E+00  0.5111E+02
     24.564  0.0000E+00  0.5181E+02
     24.838  0.3343E+00  0.5306E+02
     25.111  0.8088E-14  0.5355E+02
     25.384  0.4246E-03  0.5473E+02
     25.658  0.1064E-04  0.5569E+02
     25.931  0.0000E+00  0.5644E+02
     26.205  0.0000E+00  0.5673E+02
     26.478  0.0000E+00  0.5750E+02
     26.751  0.0000E+00  0.5767E+02
     27.025  0.0000E+00  0.5781E+02
     27.298  0.1355E+00  0.5853E+02
     27.571  0.0000E+00  0.5942E+02
     27.845  0.2710E+00  0.6007E+02
     28.118  0.0000E+00  0.6035E+02
     28.391  0.0000E+00  0.6094E+02
     28.665  0.0000E+00  0.6161E+02
     28.938  0.4065E+00  0.6202E+02
     29.211  0.0000E+00  0.6224E+02
     29.485  0.1016E+00  0.6262E+02
     29.758  0.0000E+00  0.6329E+02
     30.031  0.0000E+00  0.6437E+02
     30.305  0.0000E+00  0.6481E+02
     30.578  0.0000E+00  0.6510E+02
     30.851  0.1355E+00  0.6581E+02
     31.125  0.0000E+00  0.6638E+02
     31.398  0.0000E+00  0.6694E+02
     31.671  0.0000E+00  0.6769E+02
     31.945  0.8130E+00  0.6906E+02
     32.218  0.0000E+00  0.6981E+02
     32.491  0.8130E+00  0.7030E+02
     32.765  0.0000E+00  0.7146E+02
     33.038  0.0000E+00  0.7227E+02
     33.311  0.4064E+00  0.7286E+02
     33.585  0.0000E+00  0.7325E+02
     33.858  0.0000E+00  0.7398E+02
     34.132  0.0000E+00  0.7444E+02
     34.405  0.9701E-01  0.7447E+02
     34.678  0.0000E+00  0.7567E+02
     34.952  0.0000E+00  0.7602E+02
     35.225  0.0000E+00  0.7735E+02
     35.498  0.8688E-01  0.7813E+02
     35.772  0.0000E+00  0.7869E+02
     36.045  0.1432E-04  0.7985E+02
     36.318  0.0000E+00  0.8030E+02
     36.592  0.0000E+00  0.8094E+02
     36.865  0.0000E+00  0.8169E+02
     37.138  0.0000E+00  0.8330E+02
     37.412  0.0000E+00  0.8330E+02
     37.685  0.0000E+00  0.8399E+02
     37.958  0.4065E+00  0.8463E+02
     38.232  0.0000E+00  0.8527E+02
     38.505  0.3862E-08  0.8579E+02
     38.778  0.0000E+00  0.8607E+02
     39.052  0.0000E+00  0.8635E+02
     39.325  0.0000E+00  0.8726E+02
     39.598  0.0000E+00  0.8872E+02
     39.872  0.0000E+00  0.8894E+02
     40.145  0.0000E+00  0.8965E+02
     40.418  0.1705E-07  0.8991E+02
     40.692  0.2710E+00  0.9111E+02
     40.965  0.0000E+00  0.9141E+02
     41.238  0.8146E+00  0.9248E+02
     41.512  0.0000E+00  0.9334E+02
     41.785  0.0000E+00  0.9379E+02
     42.058  0.0000E+00  0.9499E+02
     42.332  0.0000E+00  0.9529E+02
     42.605  0.0000E+00  0.9555E+02
     42.879  0.0000E+00  0.9578E+02
     43.152  0.0000E+00  0.9589E+02
     43.425  0.0000E+00  0.9589E+02
     43.699  0.0000E+00  0.9589E+02
     43.972  0.0000E+00  0.9589E+02
     44.245  0.0000E+00  0.9600E+02
     44.519  0.0000E+00  0.9600E+02
     44.792  0.0000E+00  0.9600E+02
     45.065  0.0000E+00  0.9600E+02
     45.339  0.0000E+00  0.9600E+02
     45.612  0.0000E+00  0.9600E+02
     45.885  0.0000E+00  0.9600E+02
     46.159  0.0000E+00  0.9600E+02
     46.432  0.0000E+00  0.9600E+02
     46.705  0.0000E+00  0.9600E+02
     46.979  0.0000E+00  0.9600E+02
     47.252  0.0000E+00  0.9600E+02
     47.525  0.0000E+00  0.9600E+02
     47.799  0.0000E+00  0.9600E+02
