   1   1   0   0
  0.6083477E+02  0.4414576E-09  0.4414576E-09  0.4414576E-09  0.1000000E-15
  1.000000000000000E-004
  CAR 
 Og_FCC                                  
    131.53143770    -56.48034527  301     -4.30707550      1.00000000
    -56.480  0.0000E+00  0.0000E+00
    -55.854  0.0000E+00  0.0000E+00
    -55.227  0.0000E+00  0.0000E+00
    -54.600  0.0000E+00  0.0000E+00
    -53.974  0.0000E+00  0.0000E+00
    -53.347  0.0000E+00  0.0000E+00
    -52.720  0.0000E+00  0.0000E+00
    -52.093  0.0000E+00  0.0000E+00
    -51.467  0.0000E+00  0.0000E+00
    -50.840  0.0000E+00  0.0000E+00
    -50.213  0.0000E+00  0.0000E+00
    -49.587  0.0000E+00  0.0000E+00
    -48.960  0.0000E+00  0.0000E+00
    -48.333  0.0000E+00  0.0000E+00
    -47.706  0.0000E+00  0.1000E+02
    -47.080  0.0000E+00  0.1000E+02
    -46.453  0.0000E+00  0.1000E+02
    -45.826  0.0000E+00  0.1000E+02
    -45.200  0.0000E+00  0.1000E+02
    -44.573  0.0000E+00  0.1000E+02
    -43.946  0.0000E+00  0.1000E+02
    -43.320  0.0000E+00  0.1000E+02
    -42.693  0.0000E+00  0.1000E+02
    -42.066  0.0000E+00  0.1000E+02
    -41.439  0.0000E+00  0.1000E+02
    -40.813  0.0000E+00  0.1000E+02
    -40.186  0.0000E+00  0.1000E+02
    -39.559  0.0000E+00  0.1000E+02
    -38.933  0.0000E+00  0.1000E+02
    -38.306  0.0000E+00  0.1000E+02
    -37.679  0.0000E+00  0.1000E+02
    -37.052  0.0000E+00  0.1000E+02
    -36.426  0.0000E+00  0.1000E+02
    -35.799  0.0000E+00  0.1000E+02
    -35.172  0.0000E+00  0.1000E+02
    -34.546  0.0000E+00  0.1000E+02
    -33.919  0.0000E+00  0.1000E+02
    -33.292  0.0000E+00  0.1000E+02
    -32.666  0.0000E+00  0.1000E+02
    -32.039  0.0000E+00  0.1000E+02
    -31.412  0.0000E+00  0.1000E+02
    -30.785  0.0000E+00  0.1000E+02
    -30.159  0.0000E+00  0.1000E+02
    -29.532  0.0000E+00  0.1000E+02
    -28.905  0.0000E+00  0.1000E+02
    -28.279  0.0000E+00  0.1000E+02
    -27.652  0.0000E+00  0.1000E+02
    -27.025  0.0000E+00  0.1000E+02
    -26.398  0.0000E+00  0.1000E+02
    -25.772  0.0000E+00  0.1000E+02
    -25.145  0.0000E+00  0.1000E+02
    -24.518  0.0000E+00  0.1000E+02
    -23.892  0.0000E+00  0.1000E+02
    -23.265  0.0000E+00  0.1000E+02
    -22.638  0.0000E+00  0.1000E+02
    -22.012  0.0000E+00  0.1000E+02
    -21.385  0.0000E+00  0.1000E+02
    -20.758  0.0000E+00  0.1000E+02
    -20.131  0.0000E+00  0.1016E+02
    -19.505  0.0000E+00  0.1200E+02
    -18.878  0.0000E+00  0.1200E+02
    -18.251  0.0000E+00  0.1200E+02
    -17.625  0.0000E+00  0.1200E+02
    -16.998  0.0000E+00  0.1200E+02
    -16.371  0.0000E+00  0.1200E+02
    -15.744  0.0000E+00  0.1200E+02
    -15.118  0.0000E+00  0.1200E+02
    -14.491  0.0000E+00  0.1200E+02
    -13.864  0.0000E+00  0.1200E+02
    -13.238  0.0000E+00  0.1200E+02
    -12.611  0.0000E+00  0.1200E+02
    -11.984  0.0000E+00  0.1200E+02
    -11.358  0.0000E+00  0.1200E+02
    -10.731  0.0000E+00  0.1200E+02
    -10.104  0.0000E+00  0.1200E+02
     -9.477  0.0000E+00  0.1200E+02
     -8.851  0.0000E+00  0.1200E+02
     -8.224  0.0000E+00  0.1200E+02
     -7.597  0.0000E+00  0.1200E+02
     -6.971  0.0000E+00  0.1200E+02
     -6.344  0.0000E+00  0.1334E+02
     -5.717  0.3328E-01  0.1421E+02
     -5.090  0.0000E+00  0.1658E+02
     -4.464  0.0000E+00  0.1800E+02
     -3.837  0.0000E+00  0.1800E+02
     -3.210  0.0000E+00  0.1800E+02
     -2.584  0.0000E+00  0.1800E+02
     -1.957  0.0000E+00  0.1800E+02
     -1.330  0.0000E+00  0.1800E+02
     -0.704  0.0000E+00  0.1800E+02
     -0.077  0.0000E+00  0.1800E+02
      0.550  0.0000E+00  0.1800E+02
      1.177  0.0000E+00  0.1800E+02
      1.803  0.0000E+00  0.1800E+02
      2.430  0.0000E+00  0.1800E+02
      3.057  0.0000E+00  0.1800E+02
      3.683  0.0000E+00  0.1801E+02
      4.310  0.0000E+00  0.1801E+02
      4.937  0.0000E+00  0.1809E+02
      5.564  0.0000E+00  0.1824E+02
      6.190  0.0000E+00  0.1895E+02
      6.817  0.0000E+00  0.1969E+02
      7.444  0.0000E+00  0.2070E+02
      8.070  0.0000E+00  0.2161E+02
      8.697  0.2233E+00  0.2218E+02
      9.324  0.0000E+00  0.2334E+02
      9.950  0.0000E+00  0.2457E+02
     10.577  0.0000E+00  0.2530E+02
     11.204  0.7443E-01  0.2588E+02
     11.831  0.3483E-01  0.2688E+02
     12.457  0.0000E+00  0.2799E+02
     13.084  0.0000E+00  0.2901E+02
     13.711  0.0000E+00  0.3007E+02
     14.337  0.0000E+00  0.3077E+02
     14.964  0.0000E+00  0.3161E+02
     15.591  0.0000E+00  0.3248E+02
     16.218  0.9876E-01  0.3455E+02
     16.844  0.2137E+00  0.3606E+02
     17.471  0.2233E+00  0.4009E+02
     18.098  0.0000E+00  0.4324E+02
     18.724  0.0000E+00  0.4490E+02
     19.351  0.1116E+00  0.4608E+02
     19.978  0.0000E+00  0.4752E+02
     20.604  0.0000E+00  0.4906E+02
     21.231  0.0000E+00  0.5100E+02
     21.858  0.0000E+00  0.5283E+02
     22.485  0.0000E+00  0.5479E+02
     23.111  0.0000E+00  0.5673E+02
     23.738  0.0000E+00  0.5766E+02
     24.365  0.0000E+00  0.5870E+02
     24.991  0.0000E+00  0.6005E+02
     25.618  0.0000E+00  0.6110E+02
     26.245  0.1711E+00  0.6264E+02
     26.872  0.0000E+00  0.6431E+02
     27.498  0.0000E+00  0.6570E+02
     28.125  0.0000E+00  0.6819E+02
     28.752  0.0000E+00  0.6963E+02
     29.378  0.0000E+00  0.7184E+02
     30.005  0.0000E+00  0.7263E+02
     30.632  0.0000E+00  0.7371E+02
     31.258  0.7706E-09  0.7517E+02
     31.885  0.0000E+00  0.7694E+02
     32.512  0.0000E+00  0.7946E+02
     33.139  0.3620E-04  0.8128E+02
     33.765  0.0000E+00  0.8303E+02
     34.392  0.5582E-01  0.8417E+02
     35.019  0.0000E+00  0.8619E+02
     35.645  0.0000E+00  0.8721E+02
     36.272  0.0000E+00  0.8929E+02
     36.899  0.1116E+00  0.9064E+02
     37.526  0.1116E+00  0.9243E+02
     38.152  0.0000E+00  0.9381E+02
     38.779  0.0000E+00  0.9641E+02
     39.406  0.0000E+00  0.9727E+02
     40.032  0.2233E+00  0.9900E+02
     40.659  0.1052E+00  0.1006E+03
     41.286  0.0000E+00  0.1032E+03
     41.912  0.0000E+00  0.1047E+03
     42.539  0.6269E-01  0.1066E+03
     43.166  0.0000E+00  0.1083E+03
     43.793  0.3987E-04  0.1106E+03
     44.419  0.0000E+00  0.1124E+03
     45.046  0.0000E+00  0.1142E+03
     45.673  0.0000E+00  0.1161E+03
     46.299  0.0000E+00  0.1182E+03
     46.926  0.0000E+00  0.1193E+03
     47.553  0.0000E+00  0.1212E+03
     48.180  0.0000E+00  0.1231E+03
     48.806  0.0000E+00  0.1255E+03
     49.433  0.9183E-15  0.1272E+03
     50.060  0.0000E+00  0.1292E+03
     50.686  0.0000E+00  0.1309E+03
     51.313  0.0000E+00  0.1333E+03
     51.940  0.1116E+00  0.1358E+03
     52.566  0.0000E+00  0.1375E+03
     53.193  0.4466E+00  0.1391E+03
     53.820  0.0000E+00  0.1407E+03
     54.447  0.0000E+00  0.1426E+03
     55.073  0.0000E+00  0.1445E+03
     55.700  0.0000E+00  0.1470E+03
     56.327  0.0000E+00  0.1487E+03
     56.953  0.5582E-01  0.1506E+03
     57.580  0.0000E+00  0.1526E+03
     58.207  0.2791E+00  0.1552E+03
     58.834  0.0000E+00  0.1570E+03
     59.460  0.2233E+00  0.1597E+03
     60.087  0.0000E+00  0.1618E+03
     60.714  0.0000E+00  0.1635E+03
     61.340  0.0000E+00  0.1660E+03
     61.967  0.0000E+00  0.1689E+03
     62.594  0.0000E+00  0.1713E+03
     63.220  0.0000E+00  0.1732E+03
     63.847  0.0000E+00  0.1745E+03
     64.474  0.0000E+00  0.1766E+03
     65.101  0.1107E-04  0.1784E+03
     65.727  0.5582E+00  0.1813E+03
     66.354  0.0000E+00  0.1836E+03
     66.981  0.8350E-01  0.1853E+03
     67.607  0.2233E+00  0.1871E+03
     68.234  0.7443E-01  0.1902E+03
     68.861  0.2233E+00  0.1925E+03
     69.488  0.0000E+00  0.1945E+03
     70.114  0.0000E+00  0.1963E+03
     70.741  0.4466E+00  0.1986E+03
     71.368  0.0000E+00  0.2003E+03
     71.994  0.0000E+00  0.2034E+03
     72.621  0.0000E+00  0.2059E+03
     73.248  0.0000E+00  0.2078E+03
     73.874  0.0000E+00  0.2100E+03
     74.501  0.0000E+00  0.2132E+03
     75.128  0.0000E+00  0.2152E+03
     75.755  0.0000E+00  0.2171E+03
     76.381  0.8890E-06  0.2200E+03
     77.008  0.0000E+00  0.2222E+03
     77.635  0.0000E+00  0.2246E+03
     78.261  0.0000E+00  0.2272E+03
     78.888  0.1599E-07  0.2290E+03
     79.515  0.3987E-03  0.2313E+03
     80.142  0.8425E-13  0.2333E+03
     80.768  0.0000E+00  0.2359E+03
     81.395  0.0000E+00  0.2388E+03
     82.022  0.0000E+00  0.2410E+03
     82.648  0.0000E+00  0.2436E+03
     83.275  0.5582E-01  0.2456E+03
     83.902  0.1489E+00  0.2486E+03
     84.528  0.0000E+00  0.2514E+03
     85.155  0.0000E+00  0.2539E+03
     85.782  0.2834E+00  0.2566E+03
     86.409  0.3945E-01  0.2594E+03
     87.035  0.2010E-01  0.2613E+03
     87.662  0.0000E+00  0.2636E+03
     88.289  0.1938E+00  0.2662E+03
     88.915  0.0000E+00  0.2685E+03
     89.542  0.2233E+00  0.2712E+03
     90.169  0.0000E+00  0.2729E+03
     90.796  0.0000E+00  0.2762E+03
     91.422  0.0000E+00  0.2794E+03
     92.049  0.0000E+00  0.2815E+03
     92.676  0.0000E+00  0.2841E+03
     93.302  0.2892E-01  0.2865E+03
     93.929  0.0000E+00  0.2896E+03
     94.556  0.1702E-02  0.2915E+03
     95.182  0.3349E+00  0.2942E+03
     95.809  0.0000E+00  0.2972E+03
     96.436  0.0000E+00  0.2994E+03
     97.063  0.7322E-04  0.3019E+03
     97.689  0.0000E+00  0.3046E+03
     98.316  0.2017E+00  0.3072E+03
     98.943  0.0000E+00  0.3102E+03
     99.569  0.0000E+00  0.3132E+03
    100.196  0.2108E-01  0.3159E+03
    100.823  0.1289E-06  0.3181E+03
    101.450  0.0000E+00  0.3208E+03
    102.076  0.0000E+00  0.3232E+03
    102.703  0.0000E+00  0.3254E+03
    103.330  0.0000E+00  0.3286E+03
    103.956  0.3701E+00  0.3310E+03
    104.583  0.0000E+00  0.3345E+03
    105.210  0.6998E-01  0.3367E+03
    105.836  0.0000E+00  0.3394E+03
    106.463  0.1987E-10  0.3422E+03
    107.090  0.5005E-01  0.3450E+03
    107.717  0.1116E+00  0.3487E+03
    108.343  0.1116E+00  0.3513E+03
    108.970  0.1744E+00  0.3549E+03
    109.597  0.0000E+00  0.3578E+03
    110.223  0.0000E+00  0.3594E+03
    110.850  0.0000E+00  0.3615E+03
    111.477  0.4331E-06  0.3643E+03
    112.104  0.0000E+00  0.3674E+03
    112.730  0.0000E+00  0.3699E+03
    113.357  0.0000E+00  0.3731E+03
    113.984  0.0000E+00  0.3757E+03
    114.610  0.0000E+00  0.3794E+03
    115.237  0.0000E+00  0.3821E+03
    115.864  0.0000E+00  0.3851E+03
    116.490  0.0000E+00  0.3876E+03
    117.117  0.0000E+00  0.3891E+03
    117.744  0.1581E-04  0.3905E+03
    118.371  0.0000E+00  0.3912E+03
    118.997  0.0000E+00  0.3915E+03
    119.624  0.0000E+00  0.3917E+03
    120.251  0.0000E+00  0.3917E+03
    120.877  0.0000E+00  0.3918E+03
    121.504  0.0000E+00  0.3919E+03
    122.131  0.0000E+00  0.3919E+03
    122.758  0.0000E+00  0.3920E+03
    123.384  0.0000E+00  0.3920E+03
    124.011  0.0000E+00  0.3920E+03
    124.638  0.0000E+00  0.3920E+03
    125.264  0.0000E+00  0.3920E+03
    125.891  0.0000E+00  0.3920E+03
    126.518  0.0000E+00  0.3920E+03
    127.144  0.0000E+00  0.3920E+03
    127.771  0.0000E+00  0.3920E+03
    128.398  0.0000E+00  0.3920E+03
    129.025  0.0000E+00  0.3920E+03
    129.651  0.0000E+00  0.3920E+03
    130.278  0.0000E+00  0.3920E+03
    130.905  0.0000E+00  0.3920E+03
    131.531  0.0000E+00  0.3920E+03
