    1    1    1    1
  0.6083477E+02  0.4414576E-09  0.4414576E-09  0.4414576E-09  0.1000000E-15
  1.000000000000000E-004
  CAR 
 Og_FCC                                  
     18    172    196
 
  0.0000000E+00  0.0000000E+00  0.0000000E+00  0.2915452E-02
    1      -47.934355   1.000000
    2      -47.934248   1.000000
    3      -47.928344   1.000000
    4      -47.928177   1.000000
    5      -47.927346   1.000000
    6      -20.264076   1.000000
    7       -4.604214   1.000000
    8       -4.591371   1.000000
    9       -4.590360   1.000000
   10        3.673735   0.000000
   11        9.490806   0.000000
   12        9.493097   0.000000
   13        9.497399   0.000000
   14       11.082894   0.000000
   15       12.339826   0.000000
   16       12.341145   0.000000
   17       13.412516   0.000000
   18       13.416464   0.000000
   19       13.418632   0.000000
   20       15.289674   0.000000
   21       18.897371   0.000000
   22       18.897371   0.000000
   23       18.897372   0.000000
   24       22.895463   0.000000
   25       22.895463   0.000000
   26       22.895463   0.000000
   27       23.872780   0.000000
   28       25.762449   0.000000
   29       25.762449   0.000000
   30       25.762449   0.000000
   31       26.313737   0.000000
   32       26.313737   0.000000
   33       26.313737   0.000000
   34       26.467038   0.000000
   35       26.467038   0.000000
   36       28.481768   0.000000
   37       34.339968   0.000000
   38       34.339969   0.000000
   39       34.339969   0.000000
   40       36.558776   0.000000
   41       36.558776   0.000000
   42       36.975851   0.000000
   43       36.975851   0.000000
   44       36.975851   0.000000
   45       37.706639   0.000000
   46       37.706640   0.000000
   47       37.706640   0.000000
   48       37.735250   0.000000
   49       37.735251   0.000000
   50       37.735251   0.000000
   51       40.005346   0.000000
   52       40.005346   0.000000
   53       40.005346   0.000000
   54       40.718041   0.000000
   55       40.718041   0.000000
   56       40.746826   0.000000
   57       42.824222   0.000000
   58       42.824222   0.000000
   59       42.824222   0.000000
   60       43.274451   0.000000
   61       43.884554   0.000000
   62       44.216059   0.000000
   63       44.216059   0.000000
   64       44.216059   0.000000
   65       44.449804   0.000000
   66       44.449804   0.000000
   67       44.449806   0.000000
   68       47.681196   0.000000
   69       47.681197   0.000000
   70       47.681197   0.000000
   71       50.323259   0.000000
   72       56.977761   0.000000
   73       57.212041   0.000000
   74       57.212041   0.000000
   75       60.604190   0.000000
   76       60.604190   0.000000
   77       60.604190   0.000000
   78       63.728102   0.000000
   79       63.728103   0.000000
   80       65.197906   0.000000
   81       65.197907   0.000000
   82       65.197907   0.000000
   83       68.118705   0.000000
   84       68.118705   0.000000
   85       68.118705   0.000000
   86       68.425943   0.000000
   87       68.425944   0.000000
   88       68.425944   0.000000
   89       69.717274   0.000000
   90       69.717274   0.000000
   91       70.650839   0.000000
   92       70.650840   0.000000
   93       70.650840   0.000000
   94       70.681288   0.000000
   95       70.681289   0.000000
   96       70.681289   0.000000
   97       70.803353   0.000000
   98       70.803353   0.000000
   99       70.803354   0.000000
  100       71.682830   0.000000
  101       71.682831   0.000000
  102       71.682831   0.000000
  103       72.138024   0.000000
  104       72.988540   0.000000
  105       73.999626   0.000000
  106       73.999626   0.000000
  107       74.450701   0.000000
  108       74.450701   0.000000
  109       74.450702   0.000000
  110       74.850091   0.000000
  111       74.850091   0.000000
  112       74.850091   0.000000
  113       74.872542   0.000000
  114       74.872543   0.000000
  115       74.872543   0.000000
  116       75.327156   0.000000
  117       75.802046   0.000000
  118       75.802047   0.000000
  119       78.107954   0.000000
  120       78.107956   0.000000
  121       78.107956   0.000000
  122       78.819315   0.000000
  123       79.024041   0.000000
  124       79.024041   0.000000
  125       79.024042   0.000000
  126       85.696376   0.000000
  127       85.696376   0.000000
  128       85.696377   0.000000
  129       86.210353   0.000000
  130       86.210354   0.000000
  131       86.210354   0.000000
  132       86.471531   0.000000
  133       86.471531   0.000000
  134       89.582146   0.000000
  135       89.582146   0.000000
  136       89.582147   0.000000
  137       89.782880   0.000000
  138       89.782880   0.000000
  139       90.099167   0.000000
  140       90.337835   0.000000
  141       90.337835   0.000000
  142       90.337835   0.000000
  143       91.078077   0.000000
  144       91.078078   0.000000
  145       91.078078   0.000000
  146       92.232621   0.000000
  147       92.232622   0.000000
  148       92.232622   0.000000
  149       94.647629   0.000000
  150       98.035271   0.000000
  151       98.395220   0.000000
  152       98.395220   0.000000
  153       98.395221   0.000000
  154       98.566727   0.000000
  155       98.566728   0.000000
  156       98.566728   0.000000
  157       98.760310   0.000000
  158       98.760310   0.000000
  159       98.760311   0.000000
  160       99.067069   0.000000
  161       99.067069   0.000000
  162      100.500561   0.000000
  163      100.500561   0.000000
  164      100.500562   0.000000
  165      101.727912   0.000000
  166      101.727912   0.000000
  167      101.727912   0.000000
  168      101.804605   0.000000
  169      101.900118   0.000000
  170      101.900119   0.000000
  171      101.900120   0.000000
  172      102.435957   0.000000
  173      102.435957   0.000000
  174      102.498735   0.000000
  175      102.498737   0.000000
  176      102.498737   0.000000
  177      105.301484   0.000000
  178      105.379818   0.000000
  179      105.791814   0.000000
  180      105.791815   0.000000
  181      105.791815   0.000000
  182      114.141972   0.000000
  183      114.141972   0.000000
  184      117.634062   0.000000
  185      117.634063   0.000000
  186      117.634063   0.000000
  187      119.296296   0.000000
  188      119.296297   0.000000
  189      119.296298   0.000000
  190      120.839430   0.000000
  191      120.839431   0.000000
  192      120.839431   0.000000
  193      122.859275   0.000000
  194      122.985447   0.000000
  195      122.985447   0.000000
  196      122.985448   0.000000
 
  0.1428571E+00 -0.1258766E-16 -0.6938894E-17  0.5830904E-02
    1      -47.933624   1.000000
    2      -47.933495   1.000000
    3      -47.927794   1.000000
    4      -47.927332   1.000000
    5      -47.926562   1.000000
    6      -20.212052   1.000000
    7       -5.169475   1.000000
    8       -4.647023   1.000000
    9       -4.646019   1.000000
   10        4.377897   0.000000
   11        8.717268   0.000000
   12        9.687743   0.000000
   13        9.688114   0.000000
   14       11.465241   0.000000
   15       11.465298   0.000000
   16       11.982768   0.000000
   17       13.027824   0.000000
   18       14.995843   0.000000
   19       14.995991   0.000000
   20       16.949496   0.000000
   21       18.250394   0.000000
   22       18.250395   0.000000
   23       18.943520   0.000000
   24       20.832508   0.000000
   25       22.364109   0.000000
   26       22.364109   0.000000
   27       23.603328   0.000000
   28       24.585757   0.000000
   29       24.886595   0.000000
   30       24.886596   0.000000
   31       26.362577   0.000000
   32       26.362578   0.000000
   33       27.358548   0.000000
   34       27.979871   0.000000
   35       27.979871   0.000000
   36       31.028639   0.000000
   37       33.338370   0.000000
   38       33.696632   0.000000
   39       33.696632   0.000000
   40       33.747429   0.000000
   41       34.683413   0.000000
   42       34.683413   0.000000
   43       36.543213   0.000000
   44       36.543213   0.000000
   45       37.235181   0.000000
   46       37.235181   0.000000
   47       37.780124   0.000000
   48       37.952178   0.000000
   49       38.096062   0.000000
   50       38.096062   0.000000
   51       38.601435   0.000000
   52       40.233990   0.000000
   53       40.233990   0.000000
   54       40.327761   0.000000
   55       41.857142   0.000000
   56       41.998669   0.000000
   57       41.998669   0.000000
   58       43.603637   0.000000
   59       43.603637   0.000000
   60       44.454461   0.000000
   61       45.062922   0.000000
   62       45.438302   0.000000
   63       45.581409   0.000000
   64       45.581409   0.000000
   65       46.559786   0.000000
   66       46.559787   0.000000
   67       47.339106   0.000000
   68       48.194810   0.000000
   69       48.194811   0.000000
   70       49.377219   0.000000
   71       51.478537   0.000000
   72       55.179282   0.000000
   73       55.179282   0.000000
   74       55.754026   0.000000
   75       60.722781   0.000000
   76       60.722781   0.000000
   77       62.110467   0.000000
   78       62.110467   0.000000
   79       62.311397   0.000000
   80       62.502461   0.000000
   81       64.844510   0.000000
   82       64.844511   0.000000
   83       64.922070   0.000000
   84       65.149236   0.000000
   85       65.840947   0.000000
   86       65.840947   0.000000
   87       66.874952   0.000000
   88       66.874952   0.000000
   89       68.228929   0.000000
   90       68.470371   0.000000
   91       68.470371   0.000000
   92       68.908236   0.000000
   93       68.908237   0.000000
   94       69.388860   0.000000
   95       69.985099   0.000000
   96       69.985100   0.000000
   97       71.049054   0.000000
   98       71.233039   0.000000
   99       71.404522   0.000000
  100       71.404523   0.000000
  101       72.685911   0.000000
  102       72.700335   0.000000
  103       72.700335   0.000000
  104       72.864640   0.000000
  105       72.864641   0.000000
  106       73.674051   0.000000
  107       74.008956   0.000000
  108       75.799710   0.000000
  109       75.799710   0.000000
  110       75.935998   0.000000
  111       75.935999   0.000000
  112       76.778205   0.000000
  113       76.778205   0.000000
  114       76.880656   0.000000
  115       77.946681   0.000000
  116       78.435188   0.000000
  117       78.435188   0.000000
  118       78.598827   0.000000
  119       79.090151   0.000000
  120       79.700374   0.000000
  121       80.148261   0.000000
  122       80.148261   0.000000
  123       81.180559   0.000000
  124       81.180559   0.000000
  125       82.667478   0.000000
  126       83.507256   0.000000
  127       83.507256   0.000000
  128       83.898710   0.000000
  129       83.898710   0.000000
  130       84.125570   0.000000
  131       85.702943   0.000000
  132       85.781290   0.000000
  133       86.128272   0.000000
  134       86.128272   0.000000
  135       87.828394   0.000000
  136       87.828394   0.000000
  137       87.967283   0.000000
  138       90.249009   0.000000
  139       90.249009   0.000000
  140       90.905975   0.000000
  141       92.331279   0.000000
  142       92.395378   0.000000
  143       92.504207   0.000000
  144       92.504208   0.000000
  145       93.119582   0.000000
  146       93.205846   0.000000
  147       93.205847   0.000000
  148       94.105332   0.000000
  149       94.105332   0.000000
  150       94.695367   0.000000
  151       95.356345   0.000000
  152       95.356345   0.000000
  153       95.496093   0.000000
  154       96.360925   0.000000
  155       96.360925   0.000000
  156       97.536283   0.000000
  157       97.786252   0.000000
  158       97.786253   0.000000
  159       98.270913   0.000000
  160       98.270914   0.000000
  161       98.385947   0.000000
  162       98.890729   0.000000
  163       98.890729   0.000000
  164       99.511933   0.000000
  165      102.899883   0.000000
  166      103.029102   0.000000
  167      103.029103   0.000000
  168      103.969009   0.000000
  169      103.969010   0.000000
  170      104.715453   0.000000
  171      104.992419   0.000000
  172      106.078611   0.000000
  173      106.634906   0.000000
  174      106.634906   0.000000
  175      107.326307   0.000000
  176      107.326308   0.000000
  177      107.650940   0.000000
  178      108.795928   0.000000
  179      108.960444   0.000000
  180      108.960444   0.000000
  181      110.715481   0.000000
  182      111.311677   0.000000
  183      111.311678   0.000000
  184      112.780849   0.000000
  185      116.460672   0.000000
  186      116.460672   0.000000
  187      116.470875   0.000000
  188      117.032792   0.000000
  189      117.032792   0.000000
  190      118.714416   0.000000
  191      118.714416   0.000000
  192      119.704834   0.000000
  193      120.854135   0.000000
  194      120.854136   0.000000
  195      121.860453   0.000000
  196      122.424448   0.000000
 
  0.2857143E+00  0.2580261E-17 -0.1387779E-16  0.5830904E-02
    1      -47.933972   1.000000
    2      -47.933403   1.000000
    3      -47.927078   1.000000
    4      -47.926740   1.000000
    5      -47.926137   1.000000
    6      -20.113604   1.000000
    7       -6.213465   1.000000
    8       -4.777033   1.000000
    9       -4.776383   1.000000
   10        5.419314   0.000000
   11        8.638687   0.000000
   12        9.499848   0.000000
   13        9.500628   0.000000
   14       11.198967   0.000000
   15       11.830798   0.000000
   16       11.831214   0.000000
   17       15.650876   0.000000
   18       17.425257   0.000000
   19       17.431696   0.000000
   20       18.690574   0.000000
   21       16.368686   0.000000
   22       17.288827   0.000000
   23       18.612050   0.000000
   24       19.050953   0.000000
   25       22.000398   0.000000
   26       22.000398   0.000000
   27       22.870462   0.000000
   28       24.029895   0.000000
   29       24.029896   0.000000
   30       24.472861   0.000000
   31       26.675613   0.000000
   32       26.675613   0.000000
   33       27.479837   0.000000
   34       28.414432   0.000000
   35       28.414433   0.000000
   36       29.604918   0.000000
   37       32.010901   0.000000
   38       32.031558   0.000000
   39       32.031558   0.000000
   40       32.961351   0.000000
   41       33.154633   0.000000
   42       33.154633   0.000000
   43       35.526062   0.000000
   44       36.214813   0.000000
   45       36.214813   0.000000
   46       36.868688   0.000000
   47       36.868688   0.000000
   48       38.527993   0.000000
   49       38.527993   0.000000
   50       38.569376   0.000000
   51       39.079321   0.000000
   52       40.276668   0.000000
   53       41.342077   0.000000
   54       41.342078   0.000000
   55       42.072773   0.000000
   56       42.921091   0.000000
   57       42.921091   0.000000
   58       45.943054   0.000000
   59       46.753025   0.000000
   60       46.753025   0.000000
   61       47.033335   0.000000
   62       47.558916   0.000000
   63       47.558917   0.000000
   64       48.112630   0.000000
   65       49.597156   0.000000
   66       49.845824   0.000000
   67       49.845825   0.000000
   68       51.084640   0.000000
   69       51.084640   0.000000
   70       51.683798   0.000000
   71       52.386594   0.000000
   72       52.386594   0.000000
   73       54.215158   0.000000
   74       56.164491   0.000000
   75       56.164491   0.000000
   76       56.898450   0.000000
   77       57.339423   0.000000
   78       59.721230   0.000000
   79       60.221109   0.000000
   80       60.221110   0.000000
   81       61.249005   0.000000
   82       61.637484   0.000000
   83       61.637485   0.000000
   84       62.722974   0.000000
   85       63.505220   0.000000
   86       63.505220   0.000000
   87       64.646689   0.000000
   88       64.646690   0.000000
   89       66.732712   0.000000
   90       68.668911   0.000000
   91       68.668911   0.000000
   92       69.012562   0.000000
   93       69.012563   0.000000
   94       69.385581   0.000000
   95       69.385581   0.000000
   96       70.044113   0.000000
   97       70.242232   0.000000
   98       70.242232   0.000000
   99       70.248595   0.000000
  100       71.324749   0.000000
  101       71.459285   0.000000
  102       71.459285   0.000000
  103       73.018480   0.000000
  104       73.455096   0.000000
  105       73.455097   0.000000
  106       74.087315   0.000000
  107       74.644229   0.000000
  108       75.206917   0.000000
  109       75.206918   0.000000
  110       75.844185   0.000000
  111       78.018257   0.000000
  112       78.140913   0.000000
  113       78.174602   0.000000
  114       78.174603   0.000000
  115       79.336694   0.000000
  116       79.336694   0.000000
  117       79.960412   0.000000
  118       79.960413   0.000000
  119       81.019170   0.000000
  120       82.239429   0.000000
  121       82.239430   0.000000
  122       82.753709   0.000000
  123       82.753709   0.000000
  124       83.402311   0.000000
  125       83.743643   0.000000
  126       83.947547   0.000000
  127       83.947547   0.000000
  128       84.387495   0.000000
  129       85.727430   0.000000
  130       85.727431   0.000000
  131       85.745886   0.000000
  132       86.328281   0.000000
  133       88.161241   0.000000
  134       88.307512   0.000000
  135       88.307512   0.000000
  136       88.602734   0.000000
  137       88.602734   0.000000
  138       89.933923   0.000000
  139       89.933924   0.000000
  140       90.072318   0.000000
  141       90.072319   0.000000
  142       90.101027   0.000000
  143       90.509782   0.000000
  144       90.519617   0.000000
  145       91.473229   0.000000
  146       91.473230   0.000000
  147       92.410216   0.000000
  148       92.860919   0.000000
  149       92.860919   0.000000
  150       94.364990   0.000000
  151       95.484989   0.000000
  152       95.484990   0.000000
  153       95.535334   0.000000
  154       95.672711   0.000000
  155       95.672712   0.000000
  156       96.794804   0.000000
  157       97.664331   0.000000
  158       97.831780   0.000000
  159       97.831780   0.000000
  160       99.860317   0.000000
  161       99.860317   0.000000
  162      101.568794   0.000000
  163      103.365754   0.000000
  164      103.365754   0.000000
  165      103.751357   0.000000
  166      105.965932   0.000000
  167      105.965933   0.000000
  168      107.025475   0.000000
  169      107.025476   0.000000
  170      107.089590   0.000000
  171      108.377221   0.000000
  172      108.494904   0.000000
  173      108.494905   0.000000
  174      108.815096   0.000000
  175      108.824784   0.000000
  176      108.824784   0.000000
  177      109.529141   0.000000
  178      109.749709   0.000000
  179      109.749709   0.000000
  180      110.868874   0.000000
  181      112.641779   0.000000
  182      112.641779   0.000000
  183      113.584015   0.000000
  184      113.903773   0.000000
  185      113.903774   0.000000
  186      114.325472   0.000000
  187      115.422759   0.000000
  188      115.557781   0.000000
  189      115.557782   0.000000
  190      115.851911   0.000000
  191      115.851912   0.000000
  192      115.881225   0.000000
  193      116.437527   0.000000
  194      116.437528   0.000000
  195      116.670585   0.000000
  196      118.412256   0.000000
 
  0.4285714E+00  0.3870391E-17  0.2775558E-16  0.5830904E-02
    1      -47.932782   1.000000
    2      -47.932091   1.000000
    3      -47.926751   1.000000
    4      -47.925511   1.000000
    5      -47.924889   1.000000
    6      -20.034258   1.000000
    7       -6.900540   1.000000
    8       -4.876664   1.000000
    9       -4.875529   1.000000
   10        5.621098   0.000000
   11        9.101082   0.000000
   12        9.101383   0.000000
   13        9.371910   0.000000
   14       11.326396   0.000000
   15       13.569313   0.000000
   16       13.570215   0.000000
   17       15.939657   0.000000
   18       15.942824   0.000000
   19       16.057325   0.000000
   20       18.887965   0.000000
   21       17.191328   0.000000
   22       17.191328   0.000000
   23       19.141735   0.000000
   24       20.748159   0.000000
   25       21.710054   0.000000
   26       22.020065   0.000000
   27       22.020065   0.000000
   28       23.033025   0.000000
   29       23.033025   0.000000
   30       24.761290   0.000000
   31       26.032312   0.000000
   32       26.818730   0.000000
   33       26.818730   0.000000
   34       27.711920   0.000000
   35       27.711921   0.000000
   36       28.611571   0.000000
   37       29.543169   0.000000
   38       31.240392   0.000000
   39       31.262535   0.000000
   40       31.262535   0.000000
   41       32.524400   0.000000
   42       32.524401   0.000000
   43       35.775639   0.000000
   44       35.775639   0.000000
   45       36.291748   0.000000
   46       36.688053   0.000000
   47       36.688054   0.000000
   48       39.274295   0.000000
   49       39.424744   0.000000
   50       39.424744   0.000000
   51       39.590815   0.000000
   52       42.761269   0.000000
   53       42.814048   0.000000
   54       42.814049   0.000000
   55       43.499698   0.000000
   56       44.944965   0.000000
   57       44.944966   0.000000
   58       45.088042   0.000000
   59       47.787095   0.000000
   60       47.787095   0.000000
   61       48.772463   0.000000
   62       49.024576   0.000000
   63       49.024576   0.000000
   64       50.136763   0.000000
   65       50.954320   0.000000
   66       50.954320   0.000000
   67       51.138355   0.000000
   68       51.727712   0.000000
   69       51.727712   0.000000
   70       51.851425   0.000000
   71       53.585444   0.000000
   72       53.585444   0.000000
   73       53.900457   0.000000
   74       55.051319   0.000000
   75       55.890935   0.000000
   76       55.890935   0.000000
   77       56.017250   0.000000
   78       57.350534   0.000000
   79       57.350534   0.000000
   80       58.067246   0.000000
   81       58.878271   0.000000
   82       58.878272   0.000000
   83       59.903929   0.000000
   84       59.903929   0.000000
   85       60.514986   0.000000
   86       63.986303   0.000000
   87       63.986303   0.000000
   88       64.686253   0.000000
   89       64.686253   0.000000
   90       65.018633   0.000000
   91       67.341218   0.000000
   92       68.805027   0.000000
   93       68.805027   0.000000
   94       69.012524   0.000000
   95       69.012524   0.000000
   96       69.143919   0.000000
   97       69.649071   0.000000
   98       71.331789   0.000000
   99       71.331789   0.000000
  100       71.503973   0.000000
  101       71.582313   0.000000
  102       72.845450   0.000000
  103       73.218509   0.000000
  104       73.265539   0.000000
  105       73.265540   0.000000
  106       73.758072   0.000000
  107       73.758072   0.000000
  108       74.428072   0.000000
  109       76.194275   0.000000
  110       76.194275   0.000000
  111       77.307038   0.000000
  112       77.373371   0.000000
  113       77.373371   0.000000
  114       78.713182   0.000000
  115       78.713183   0.000000
  116       79.587914   0.000000
  117       79.763784   0.000000
  118       80.954405   0.000000
  119       80.954406   0.000000
  120       81.516601   0.000000
  121       82.059240   0.000000
  122       82.059241   0.000000
  123       83.409648   0.000000
  124       83.556228   0.000000
  125       83.556229   0.000000
  126       83.600540   0.000000
  127       84.821674   0.000000
  128       84.821674   0.000000
  129       85.900847   0.000000
  130       85.900847   0.000000
  131       86.872036   0.000000
  132       87.726111   0.000000
  133       88.270832   0.000000
  134       88.807539   0.000000
  135       88.807539   0.000000
  136       90.454994   0.000000
  137       90.454994   0.000000
  138       91.172390   0.000000
  139       91.172390   0.000000
  140       91.634403   0.000000
  141       91.966421   0.000000
  142       91.966421   0.000000
  143       93.188990   0.000000
  144       93.188990   0.000000
  145       93.311131   0.000000
  146       93.431665   0.000000
  147       93.615164   0.000000
  148       93.717430   0.000000
  149       93.717431   0.000000
  150       95.622353   0.000000
  151       95.622354   0.000000
  152       95.681433   0.000000
  153       96.794336   0.000000
  154       97.073466   0.000000
  155       97.139254   0.000000
  156       97.139254   0.000000
  157       98.103041   0.000000
  158       98.103042   0.000000
  159      100.341890   0.000000
  160      100.585347   0.000000
  161      100.585348   0.000000
  162      100.772009   0.000000
  163      102.796046   0.000000
  164      102.796046   0.000000
  165      102.874340   0.000000
  166      103.595115   0.000000
  167      103.595115   0.000000
  168      104.120709   0.000000
  169      105.208688   0.000000
  170      105.973576   0.000000
  171      105.973577   0.000000
  172      106.534925   0.000000
  173      106.534926   0.000000
  174      108.256328   0.000000
  175      108.775203   0.000000
  176      109.465211   0.000000
  177      109.465212   0.000000
  178      109.910760   0.000000
  179      110.169227   0.000000
  180      110.169227   0.000000
  181      111.828570   0.000000
  182      111.828571   0.000000
  183      112.472254   0.000000
  184      113.554725   0.000000
  185      113.575734   0.000000
  186      113.575735   0.000000
  187      115.354644   0.000000
  188      115.354644   0.000000
  189      115.922742   0.000000
  190      116.541367   0.000000
  191      116.541367   0.000000
  192      117.083428   0.000000
  193      117.225190   0.000000
  194      117.225191   0.000000
  195      117.288277   0.000000
  196      119.164227   0.000000
 
  0.0000000E+00  0.1428571E+00  0.6938894E-17  0.5830904E-02
    1      -47.933702   1.000000
    2      -47.933413   1.000000
    3      -47.927813   1.000000
    4      -47.927309   1.000000
    5      -47.926565   1.000000
    6      -20.212042   1.000000
    7       -5.169638   1.000000
    8       -4.647060   1.000000
    9       -4.646117   1.000000
   10        4.378016   0.000000
   11        8.717337   0.000000
   12        9.687717   0.000000
   13        9.688151   0.000000
   14       11.465246   0.000000
   15       11.465353   0.000000
   16       11.982773   0.000000
   17       13.027848   0.000000
   18       14.995807   0.000000
   19       14.996054   0.000000
   20       16.949469   0.000000
   21       18.250394   0.000000
   22       18.250395   0.000000
   23       18.943520   0.000000
   24       20.832508   0.000000
   25       22.364109   0.000000
   26       22.364109   0.000000
   27       23.603328   0.000000
   28       24.585757   0.000000
   29       24.886596   0.000000
   30       24.886596   0.000000
   31       26.362577   0.000000
   32       26.362578   0.000000
   33       27.358548   0.000000
   34       27.979871   0.000000
   35       27.979871   0.000000
   36       31.028639   0.000000
   37       33.338371   0.000000
   38       33.696632   0.000000
   39       33.696632   0.000000
   40       33.747429   0.000000
   41       34.683413   0.000000
   42       34.683413   0.000000
   43       36.543213   0.000000
   44       36.543213   0.000000
   45       37.235181   0.000000
   46       37.235181   0.000000
   47       37.780124   0.000000
   48       37.952178   0.000000
   49       38.096062   0.000000
   50       38.096062   0.000000
   51       38.601435   0.000000
   52       40.233990   0.000000
   53       40.233990   0.000000
   54       40.327761   0.000000
   55       41.857142   0.000000
   56       41.998669   0.000000
   57       41.998669   0.000000
   58       43.603637   0.000000
   59       43.603637   0.000000
   60       44.454461   0.000000
   61       45.062922   0.000000
   62       45.438302   0.000000
   63       45.581409   0.000000
   64       45.581409   0.000000
   65       46.559786   0.000000
   66       46.559787   0.000000
   67       47.339106   0.000000
   68       48.194810   0.000000
   69       48.194811   0.000000
   70       49.377219   0.000000
   71       51.478537   0.000000
   72       55.179282   0.000000
   73       55.179282   0.000000
   74       55.754026   0.000000
   75       60.722781   0.000000
   76       60.722781   0.000000
   77       62.110467   0.000000
   78       62.110467   0.000000
   79       62.311396   0.000000
   80       62.502460   0.000000
   81       64.844510   0.000000
   82       64.844511   0.000000
   83       64.922071   0.000000
   84       65.149236   0.000000
   85       65.840947   0.000000
   86       65.840948   0.000000
   87       66.874952   0.000000
   88       66.874952   0.000000
   89       68.228929   0.000000
   90       68.470371   0.000000
   91       68.470371   0.000000
   92       68.908236   0.000000
   93       68.908237   0.000000
   94       69.388861   0.000000
   95       69.985099   0.000000
   96       69.985100   0.000000
   97       71.049054   0.000000
   98       71.233039   0.000000
   99       71.404522   0.000000
  100       71.404523   0.000000
  101       72.685911   0.000000
  102       72.700335   0.000000
  103       72.700335   0.000000
  104       72.864641   0.000000
  105       72.864641   0.000000
  106       73.674051   0.000000
  107       74.008956   0.000000
  108       75.799709   0.000000
  109       75.799710   0.000000