 vasp.5.4.4.18Apr17-6-g9f103f2a35 (build Nov 03 2018 10:20:46) complex          
  
 executed on             LinuxIFC date 2018.12.22  01:52:03
 running on   56 total cores
 distrk:  each k-point on    2 cores,   28 groups
 distr:  one band on NCORES_PER_BAND=   1 cores,    2 groups


--------------------------------------------------------------------------------------------------------


 INCAR:
 POTCAR:    PAW_PBE Rn_d_GW 14Apr2014             

 ----------------------------------------------------------------------------- 
|                                                                             |
|           W    W    AA    RRRRR   N    N  II  N    N   GGGG   !!!           |
|           W    W   A  A   R    R  NN   N  II  NN   N  G    G  !!!           |
|           W    W  A    A  R    R  N N  N  II  N N  N  G       !!!           |
|           W WW W  AAAAAA  RRRRR   N  N N  II  N  N N  G  GGG   !            |
|           WW  WW  A    A  R   R   N   NN  II  N   NN  G    G                |
|           W    W  A    A  R    R  N    N  II  N    N   GGGG   !!!           |
|                                                                             |
|      For optimal performance we recommend to set                            |
|        NCORE= 4 - approx SQRT( number of cores)                             |
|      NCORE specifies how many cores store one orbital (NPAR=cpu/NCORE).     |
|      This setting can  greatly improve the performance of VASP for DFT.     |
|      The default,   NCORE=1            might be grossly inefficient         |
|      on modern multi-core architectures or massively parallel machines.     |
|      Do your own testing !!!!                                               |
|      Unfortunately you need to use the default for GW and RPA calculations. |
|      (for HF NCORE is supported but not extensively tested yet)             |
|                                                                             |
 ----------------------------------------------------------------------------- 


 ----------------------------------------------------------------------------- 
|                                                                             |
|           W    W    AA    RRRRR   N    N  II  N    N   GGGG   !!!           |
|           W    W   A  A   R    R  NN   N  II  NN   N  G    G  !!!           |
|           W    W  A    A  R    R  N N  N  II  N N  N  G       !!!           |
|           W WW W  AAAAAA  RRRRR   N  N N  II  N  N N  G  GGG   !            |
|           WW  WW  A    A  R   R   N   NN  II  N   NN  G    G                |
|           W    W  A    A  R    R  N    N  II  N    N   GGGG   !!!           |
|                                                                             |
|      You have enabled k-point parallelism (KPAR>1).                         |
|      This developmental code was originally  written by Paul Kent at ORNL,  |
|      and carefully double checked in Vienna.                                |
|      GW as well as linear response parallelism added by Martijn Marsman     |
|      and Georg Kresse.                                                      |
|      Carefully verify results versus KPAR=1.                                |
|      Report problems to Paul Kent and Vienna.                               |
|                                                                             |
 ----------------------------------------------------------------------------- 

 POTCAR:    PAW_PBE Rn_d_GW 14Apr2014             
  local pseudopotential read in
  partial core-charges read in
  partial kinetic energy density read in
  kinetic energy density of atom read in
  atomic valenz-charges read in
  non local Contribution for L=           2  read in
    real space projection operators read in
  non local Contribution for L=           2  read in
    real space projection operators read in
  non local Contribution for L=           2  read in
    real space projection operators read in
  non local Contribution for L=           0  read in
    real space projection operators read in
  non local Contribution for L=           0  read in
    real space projection operators read in
  non local Contribution for L=           1  read in
    real space projection operators read in
  non local Contribution for L=           1  read in
    real space projection operators read in
  non local Contribution for L=           3  read in
    real space projection operators read in
  non local Contribution for L=           3  read in
    real space projection operators read in
    PAW grid and wavefunctions read in
 
   number of l-projection  operators is LMAX  =           9
   number of lm-projection operators is LMMAX =          37
 
  PAW_PBE Rn_d_GW 14Apr2014             :
 energy of atom  1       EATOM=-3030.7130
 kinetic energy error for atom=    0.0889 (will be added to EATOM!!)
 
 
 POSCAR: Rn_FCC                                  
  positions in direct lattice
  velocities in cartesian coordinates
 exchange correlation table for  LEXCH =        8
   RHO(1)=    0.500       N(1)  =     2000
   RHO(2)=  100.500       N(2)  =     4000
 


--------------------------------------------------------------------------------------------------------


 ion  position               nearest neighbor table
   1  0.000  0.000  0.000-
 

IMPORTANT INFORMATION: All symmetrisations will be switched off!
NOSYMM: (Re-)initialisation of all symmetry stuff for point group C_1.

 
 
 KPOINTS: k-points                                

Automatic generation of k-mesh.
Space group operators:
 irot       det(A)        alpha          n_x          n_y          n_z        tau_x        tau_y        tau_z
    1     1.000000     0.000000     1.000000     0.000000     0.000000     0.000000     0.000000     0.000000
 
 Subroutine IBZKPT returns following result:
 ===========================================
 
 Found    172 irreducible k-points:
 
 Following reciprocal coordinates:
            Coordinates               Weight
  0.000000  0.000000  0.000000      1.000000
  0.142857 -0.000000 -0.000000      2.000000
  0.285714  0.000000 -0.000000      2.000000
  0.428571  0.000000  0.000000      2.000000
  0.000000  0.142857  0.000000      2.000000
  0.142857  0.142857 -0.000000      2.000000
  0.285714  0.142857 -0.000000      2.000000
  0.428571  0.142857  0.000000      2.000000
 -0.428571  0.142857 -0.000000      2.000000
 -0.285714  0.142857  0.000000      2.000000
 -0.142857  0.142857 -0.000000      2.000000
  0.000000  0.285714  0.000000      2.000000
  0.142857  0.285714 -0.000000      2.000000
  0.285714  0.285714 -0.000000      2.000000
  0.428571  0.285714  0.000000      2.000000
 -0.428571  0.285714  0.000000      2.000000
 -0.285714  0.285714  0.000000      2.000000
 -0.142857  0.285714 -0.000000      2.000000
  0.000000  0.428571  0.000000      2.000000
  0.142857  0.428571  0.000000      2.000000
  0.285714  0.428571  0.000000      2.000000
  0.428571  0.428571  0.000000      2.000000
 -0.428571  0.428571 -0.000000      2.000000
 -0.285714  0.428571 -0.000000      2.000000
 -0.142857  0.428571  0.000000      2.000000
  0.000000  0.000000  0.142857      2.000000
  0.142857 -0.000000  0.142857      2.000000
  0.285714 -0.000000  0.142857      2.000000
  0.428571  0.000000  0.142857      2.000000
 -0.428571 -0.000000  0.142857      2.000000
 -0.285714 -0.000000  0.142857      2.000000
 -0.142857  0.000000  0.142857      2.000000
 -0.000000  0.142857  0.142857      2.000000
  0.142857  0.142857  0.142857      2.000000
  0.285714  0.142857  0.142857      2.000000
  0.428571  0.142857  0.142857      2.000000
 -0.428571  0.142857  0.142857      2.000000
 -0.285714  0.142857  0.142857      2.000000
 -0.142857  0.142857  0.142857      2.000000
 -0.000000  0.285714  0.142857      2.000000
  0.142857  0.285714  0.142857      2.000000
  0.285714  0.285714  0.142857      2.000000
  0.428571  0.285714  0.142857      2.000000
 -0.428571  0.285714  0.142857      2.000000
 -0.285714  0.285714  0.142857      2.000000
 -0.142857  0.285714  0.142857      2.000000
 -0.000000  0.428571  0.142857      2.000000
  0.142857  0.428571  0.142857      2.000000
  0.285714  0.428571  0.142857      2.000000
  0.428571  0.428571  0.142857      2.000000
 -0.428571  0.428571  0.142857      2.000000
 -0.285714  0.428571  0.142857      2.000000
 -0.142857  0.428571  0.142857      2.000000
  0.000000 -0.428571  0.142857      2.000000
  0.142857 -0.428571  0.142857      2.000000
  0.285714 -0.428571  0.142857      2.000000
  0.428571 -0.428571  0.142857      2.000000
 -0.428571 -0.428571  0.142857      2.000000
 -0.285714 -0.428571  0.142857      2.000000
 -0.142857 -0.428571  0.142857      2.000000
  0.000000 -0.285714  0.142857      2.000000
  0.142857 -0.285714  0.142857      2.000000
  0.285714 -0.285714  0.142857      2.000000
  0.428571 -0.285714  0.142857      2.000000
 -0.428571 -0.285714  0.142857      2.000000
 -0.285714 -0.285714  0.142857      2.000000
 -0.142857 -0.285714  0.142857      2.000000
 -0.000000 -0.142857  0.142857      2.000000
  0.142857 -0.142857  0.142857      2.000000
  0.285714 -0.142857  0.142857      2.000000
  0.428571 -0.142857  0.142857      2.000000
 -0.428571 -0.142857  0.142857      2.000000
 -0.285714 -0.142857  0.142857      2.000000
 -0.142857 -0.142857  0.142857      2.000000
  0.000000  0.000000  0.285714      2.000000
  0.142857  0.000000  0.285714      2.000000
  0.285714 -0.000000  0.285714      2.000000
  0.428571 -0.000000  0.285714      2.000000
 -0.428571 -0.000000  0.285714      2.000000
 -0.285714 -0.000000  0.285714      2.000000
 -0.142857  0.000000  0.285714      2.000000
 -0.000000  0.142857  0.285714      2.000000
  0.142857  0.142857  0.285714      2.000000
  0.285714  0.142857  0.285714      2.000000
  0.428571  0.142857  0.285714      2.000000
 -0.428571  0.142857  0.285714      2.000000
 -0.285714  0.142857  0.285714      2.000000
 -0.142857  0.142857  0.285714      2.000000
 -0.000000  0.285714  0.285714      2.000000
  0.142857  0.285714  0.285714      2.000000
  0.285714  0.285714  0.285714      2.000000
  0.428571  0.285714  0.285714      2.000000
 -0.428571  0.285714  0.285714      2.000000
 -0.285714  0.285714  0.285714      2.000000
 -0.142857  0.285714  0.285714      2.000000
 -0.000000  0.428571  0.285714      2.000000
  0.142857  0.428571  0.285714      2.000000
  0.285714  0.428571  0.285714      2.000000
  0.428571  0.428571  0.285714      2.000000
 -0.428571  0.428571  0.285714      2.000000
 -0.285714  0.428571  0.285714      2.000000
 -0.142857  0.428571  0.285714      2.000000
  0.000000 -0.428571  0.285714      2.000000
  0.142857 -0.428571  0.285714      2.000000
  0.285714 -0.428571  0.285714      2.000000
  0.428571 -0.428571  0.285714      2.000000
 -0.428571 -0.428571  0.285714      2.000000
 -0.285714 -0.428571  0.285714      2.000000
 -0.142857 -0.428571  0.285714      2.000000
 -0.000000 -0.285714  0.285714      2.000000
  0.142857 -0.285714  0.285714      2.000000
  0.285714 -0.285714  0.285714      2.000000
  0.428571 -0.285714  0.285714      2.000000
 -0.428571 -0.285714  0.285714      2.000000
 -0.285714 -0.285714  0.285714      2.000000
 -0.142857 -0.285714  0.285714      2.000000
  0.000000 -0.142857  0.285714      2.000000
  0.142857 -0.142857  0.285714      2.000000
  0.285714 -0.142857  0.285714      2.000000
  0.428571 -0.142857  0.285714      2.000000
 -0.428571 -0.142857  0.285714      2.000000
 -0.285714 -0.142857  0.285714      2.000000
 -0.142857 -0.142857  0.285714      2.000000
 -0.000000  0.000000  0.428571      2.000000
  0.142857 -0.000000  0.428571      2.000000
  0.285714  0.000000  0.428571      2.000000
  0.428571  0.000000  0.428571      2.000000
 -0.428571  0.000000  0.428571      2.000000
 -0.285714  0.000000  0.428571      2.000000
 -0.142857  0.000000  0.428571      2.000000
 -0.000000  0.142857  0.428571      2.000000
  0.142857  0.142857  0.428571      2.000000
  0.285714  0.142857  0.428571      2.000000
  0.428571  0.142857  0.428571      2.000000
 -0.428571  0.142857  0.428571      2.000000
 -0.285714  0.142857  0.428571      2.000000
 -0.142857  0.142857  0.428571      2.000000
 -0.000000  0.285714  0.428571      2.000000
  0.142857  0.285714  0.428571      2.000000
  0.285714  0.285714  0.428571      2.000000
  0.428571  0.285714  0.428571      2.000000
 -0.428571  0.285714  0.428571      2.000000
 -0.285714  0.285714  0.428571      2.000000
 -0.142857  0.285714  0.428571      2.000000
 -0.000000  0.428571  0.428571      2.000000
  0.142857  0.428571  0.428571      2.000000
  0.285714  0.428571  0.428571      2.000000
  0.428571  0.428571  0.428571      2.000000
 -0.428571  0.428571  0.428571      2.000000
 -0.285714  0.428571  0.428571      2.000000
 -0.142857  0.428571  0.428571      2.000000
 -0.000000 -0.428571  0.428571      2.000000
  0.142857 -0.428571  0.428571      2.000000
  0.285714 -0.428571  0.428571      2.000000
  0.428571 -0.428571  0.428571      2.000000
 -0.428571 -0.428571  0.428571      2.000000
 -0.285714 -0.428571  0.428571      2.000000
 -0.142857 -0.428571  0.428571      2.000000
 -0.000000 -0.285714  0.428571      2.000000
  0.142857 -0.285714  0.428571      2.000000
  0.285714 -0.285714  0.428571      2.000000
  0.428571 -0.285714  0.428571      2.000000
 -0.428571 -0.285714  0.428571      2.000000
 -0.285714 -0.285714  0.428571      2.000000
 -0.142857 -0.285714  0.428571      2.000000
 -0.000000 -0.142857  0.428571      2.000000
  0.142857 -0.142857  0.428571      2.000000
  0.285714 -0.142857  0.428571      2.000000
  0.428571 -0.142857  0.428571      2.000000
 -0.428571 -0.142857  0.428571      2.000000
 -0.285714 -0.142857  0.428571      2.000000
 -0.142857 -0.142857  0.428571      2.000000
 
 Following cartesian coordinates:
            Coordinates               Weight
  0.000000  0.000000  0.000000      1.000000
  0.031602 -0.018245 -0.012901      2.000000
  0.063203 -0.036490 -0.025803      2.000000
  0.094805 -0.054736 -0.038704      2.000000
  0.000000  0.036490 -0.012901      2.000000
  0.031602  0.018245 -0.025803      2.000000
  0.063203  0.000000 -0.038704      2.000000
  0.094805 -0.018245 -0.051605      2.000000
 -0.094805  0.091226  0.025803      2.000000
 -0.063203  0.072981  0.012901      2.000000
 -0.031602  0.054736  0.000000      2.000000
  0.000000  0.072981 -0.025803      2.000000
  0.031602  0.054736 -0.038704      2.000000
  0.063203  0.036490 -0.051605      2.000000
  0.094805  0.018245 -0.064507      2.000000
 -0.094805  0.127716  0.012901      2.000000
 -0.063203  0.109471  0.000000      2.000000
 -0.031602  0.091226 -0.012901      2.000000
  0.000000  0.109471 -0.038704      2.000000
  0.031602  0.091226 -0.051605      2.000000
  0.063203  0.072981 -0.064507      2.000000
  0.094805  0.054736 -0.077408      2.000000
 -0.094805  0.164207  0.000000      2.000000
 -0.063203  0.145962 -0.012901      2.000000
 -0.031602  0.127716 -0.025803      2.000000
 -0.000000  0.000000  0.038704      2.000000
  0.031602 -0.018245  0.025803      2.000000
  0.063203 -0.036490  0.012901      2.000000
  0.094805 -0.054736 -0.000000      2.000000
 -0.094805  0.054736  0.077408      2.000000
 -0.063203  0.036490  0.064507      2.000000
 -0.031602  0.018245  0.051605      2.000000
 -0.000000  0.036490  0.025803      2.000000
  0.031602  0.018245  0.012901      2.000000
  0.063203  0.000000  0.000000      2.000000
  0.094805 -0.018245 -0.012901      2.000000
 -0.094805  0.091226  0.064507      2.000000
 -0.063203  0.072981  0.051605      2.000000
 -0.031602  0.054736  0.038704      2.000000
 -0.000000  0.072981  0.012901      2.000000
  0.031602  0.054736  0.000000      2.000000
  0.063203  0.036490 -0.012901      2.000000
  0.094805  0.018245 -0.025803      2.000000
 -0.094805  0.127716  0.051605      2.000000
 -0.063203  0.109471  0.038704      2.000000
 -0.031602  0.091226  0.025803      2.000000
 -0.000000  0.109471  0.000000      2.000000
  0.031602  0.091226 -0.012901      2.000000
  0.063203  0.072981 -0.025803      2.000000
  0.094805  0.054736 -0.038704      2.000000
 -0.094805  0.164207  0.038704      2.000000
 -0.063203  0.145962  0.025803      2.000000
 -0.031602  0.127716  0.012901      2.000000
 -0.000000 -0.109471  0.077408      2.000000
  0.031602 -0.127716  0.064507      2.000000
  0.063203 -0.145962  0.051605      2.000000
  0.094805 -0.164207  0.038704      2.000000
 -0.094805 -0.054736  0.116112      2.000000
 -0.063203 -0.072981  0.103210      2.000000
 -0.031602 -0.091226  0.090309      2.000000
 -0.000000 -0.072981  0.064507      2.000000
  0.031602 -0.091226  0.051605      2.000000
  0.063203 -0.109471  0.038704      2.000000
  0.094805 -0.127716  0.025803      2.000000
 -0.094805 -0.018245  0.103210      2.000000
 -0.063203 -0.036490  0.090309      2.000000
 -0.031602 -0.054736  0.077408      2.000000
 -0.000000 -0.036490  0.051605      2.000000
  0.031602 -0.054736  0.038704      2.000000
  0.063203 -0.072981  0.025803      2.000000
  0.094805 -0.091226  0.012901      2.000000
 -0.094805  0.018245  0.090309      2.000000
 -0.063203 -0.000000  0.077408      2.000000
 -0.031602 -0.018245  0.064507      2.000000
 -0.000000  0.000000  0.077408      2.000000
  0.031602 -0.018245  0.064507      2.000000
  0.063203 -0.036490  0.051605      2.000000
  0.094805 -0.054736  0.038704      2.000000
 -0.094805  0.054736  0.116112      2.000000
 -0.063203  0.036490  0.103210      2.000000
 -0.031602  0.018245  0.090309      2.000000
 -0.000000  0.036490  0.064507      2.000000
  0.031602  0.018245  0.051605      2.000000
  0.063203  0.000000  0.038704      2.000000
  0.094805 -0.018245  0.025803      2.000000
 -0.094805  0.091226  0.103210      2.000000
 -0.063203  0.072981  0.090309      2.000000
 -0.031602  0.054736  0.077408      2.000000
 -0.000000  0.072981  0.051605      2.000000
  0.031602  0.054736  0.038704      2.000000
  0.063203  0.036490  0.025803      2.000000
  0.094805  0.018245  0.012901      2.000000
 -0.094805  0.127716  0.090309      2.000000
 -0.063203  0.109471  0.077408      2.000000
 -0.031602  0.091226  0.064507      2.000000
 -0.000000  0.109471  0.038704      2.000000
  0.031602  0.091226  0.025803      2.000000
  0.063203  0.072981  0.012901      2.000000
  0.094805  0.054736  0.000000      2.000000
 -0.094805  0.164207  0.077408      2.000000
 -0.063203  0.145962  0.064507      2.000000
 -0.031602  0.127716  0.051605      2.000000
 -0.000000 -0.109471  0.116112      2.000000
  0.031602 -0.127716  0.103210      2.000000
  0.063203 -0.145962  0.090309      2.000000
  0.094805 -0.164207  0.077408      2.000000
 -0.094805 -0.054736  0.154816      2.000000
 -0.063203 -0.072981  0.141914      2.000000
 -0.031602 -0.091226  0.129013      2.000000
 -0.000000 -0.072981  0.103210      2.000000
  0.031602 -0.091226  0.090309      2.000000
  0.063203 -0.109471  0.077408      2.000000
  0.094805 -0.127716  0.064507      2.000000
 -0.094805 -0.018245  0.141914      2.000000
 -0.063203 -0.036490  0.129013      2.000000
 -0.031602 -0.054736  0.116112      2.000000
 -0.000000 -0.036490  0.090309      2.000000
  0.031602 -0.054736  0.077408      2.000000
  0.063203 -0.072981  0.064507      2.000000
  0.094805 -0.091226  0.051605      2.000000
 -0.094805  0.018245  0.129013      2.000000
 -0.063203 -0.000000  0.116112      2.000000
 -0.031602 -0.018245  0.103210      2.000000
 -0.000000  0.000000  0.116112      2.000000
  0.031602 -0.018245  0.103210      2.000000
  0.063203 -0.036490  0.090309      2.000000
  0.094805 -0.054736  0.077408      2.000000
 -0.094805  0.054736  0.154816      2.000000
 -0.063203  0.036490  0.141914      2.000000
 -0.031602  0.018245  0.129013      2.000000
 -0.000000  0.036490  0.103210      2.000000
  0.031602  0.018245  0.090309      2.000000
  0.063203  0.000000  0.077408      2.000000
  0.094805 -0.018245  0.064507      2.000000
 -0.094805  0.091226  0.141914      2.000000
 -0.063203  0.072981  0.129013      2.000000
 -0.031602  0.054736  0.116112      2.000000
 -0.000000  0.072981  0.090309      2.000000
  0.031602  0.054736  0.077408      2.000000
  0.063203  0.036490  0.064507      2.000000
  0.094805  0.018245  0.051605      2.000000
 -0.094805  0.127716  0.129013      2.000000
 -0.063203  0.109471  0.116112      2.000000
 -0.031602  0.091226  0.103210      2.000000
 -0.000000  0.109471  0.077408      2.000000
  0.031602  0.091226  0.064507      2.000000
  0.063203  0.072981  0.051605      2.000000
  0.094805  0.054736  0.038704      2.000000
 -0.094805  0.164207  0.116112      2.000000
 -0.063203  0.145962  0.103210      2.000000
 -0.031602  0.127716  0.090309      2.000000
 -0.000000 -0.109471  0.154816      2.000000
  0.031602 -0.127716  0.141914      2.000000
  0.063203 -0.145962  0.129013      2.000000
  0.094805 -0.164207  0.116112      2.000000
 -0.094805 -0.054736  0.193520      2.000000
 -0.063203 -0.072981  0.180618      2.000000
 -0.031602 -0.091226  0.167717      2.000000
 -0.000000 -0.072981  0.141914      2.000000
  0.031602 -0.091226  0.129013      2.000000
  0.063203 -0.109471  0.116112      2.000000
  0.094805 -0.127716  0.103210      2.000000
 -0.094805 -0.018245  0.180618      2.000000
 -0.063203 -0.036490  0.167717      2.000000
 -0.031602 -0.054736  0.154816      2.000000
 -0.000000 -0.036490  0.129013      2.000000
  0.031602 -0.054736  0.116112      2.000000
  0.063203 -0.072981  0.103210      2.000000
  0.094805 -0.091226  0.090309      2.000000
 -0.094805  0.018245  0.167717      2.000000
 -0.063203 -0.000000  0.154816      2.000000
 -0.031602 -0.018245  0.141914      2.000000
 
 
 Subroutine IBZKPT_HF returns following result:
 ==============================================
 
 Found    343 k-points in 1st BZ
 the following    343 k-points will be used (e.g. in the exchange kernel)
 Following reciprocal coordinates:   # in IRBZ
  0.000000  0.000000  0.000000    0.00291545   1 t-inv F
  0.142857 -0.000000 -0.000000    0.00291545   2 t-inv F
  0.285714  0.000000 -0.000000    0.00291545   3 t-inv F
  0.428571  0.000000  0.000000    0.00291545   4 t-inv F
  0.000000  0.142857  0.000000    0.00291545   5 t-inv F
  0.142857  0.142857 -0.000000    0.00291545   6 t-inv F
  0.285714  0.142857 -0.000000    0.00291545   7 t-inv F
  0.428571  0.142857  0.000000    0.00291545   8 t-inv F
 -0.428571  0.142857 -0.000000    0.00291545   9 t-inv F
 -0.285714  0.142857  0.000000    0.00291545  10 t-inv F
 -0.142857  0.142857 -0.000000    0.00291545  11 t-inv F
  0.000000  0.285714  0.000000    0.00291545  12 t-inv F
  0.142857  0.285714 -0.000000    0.00291545  13 t-inv F
  0.285714  0.285714 -0.000000    0.00291545  14 t-inv F
  0.428571  0.285714  0.000000    0.00291545  15 t-inv F
 -0.428571  0.285714  0.000000    0.00291545  16 t-inv F
 -0.285714  0.285714  0.000000    0.00291545  17 t-inv F
 -0.142857  0.285714 -0.000000    0.00291545  18 t-inv F
  0.000000  0.428571  0.000000    0.00291545  19 t-inv F
  0.142857  0.428571  0.000000    0.00291545  20 t-inv F
  0.285714  0.428571  0.000000    0.00291545  21 t-inv F
  0.428571  0.428571  0.000000    0.00291545  22 t-inv F
 -0.428571  0.428571 -0.000000    0.00291545  23 t-inv F
 -0.285714  0.428571 -0.000000    0.00291545  24 t-inv F
 -0.142857  0.428571  0.000000    0.00291545  25 t-inv F
  0.000000  0.000000  0.142857    0.00291545  26 t-inv F
  0.142857 -0.000000  0.142857    0.00291545  27 t-inv F
  0.285714 -0.000000  0.142857    0.00291545  28 t-inv F
  0.428571  0.000000  0.142857    0.00291545  29 t-inv F
 -0.428571 -0.000000  0.142857    0.00291545  30 t-inv F
 -0.285714 -0.000000  0.142857    0.00291545  31 t-inv F
 -0.142857  0.000000  0.142857    0.00291545  32 t-inv F
 -0.000000  0.142857  0.142857    0.00291545  33 t-inv F
  0.142857  0.142857  0.142857    0.00291545  34 t-inv F
  0.285714  0.142857  0.142857    0.00291545  35 t-inv F
  0.428571  0.142857  0.142857    0.00291545  36 t-inv F
 -0.428571  0.142857  0.142857    0.00291545  37 t-inv F
 -0.285714  0.142857  0.142857    0.00291545  38 t-inv F
 -0.142857  0.142857  0.142857    0.00291545  39 t-inv F
 -0.000000  0.285714  0.142857    0.00291545  40 t-inv F
  0.142857  0.285714  0.142857    0.00291545  41 t-inv F
  0.285714  0.285714  0.142857    0.00291545  42 t-inv F
  0.428571  0.285714  0.142857    0.00291545  43 t-inv F
 -0.428571  0.285714  0.142857    0.00291545  44 t-inv F
 -0.285714  0.285714  0.142857    0.00291545  45 t-inv F
 -0.142857  0.285714  0.142857    0.00291545  46 t-inv F
 -0.000000  0.428571  0.142857    0.00291545  47 t-inv F
  0.142857  0.428571  0.142857    0.00291545  48 t-inv F
  0.285714  0.428571  0.142857    0.00291545  49 t-inv F
  0.428571  0.428571  0.142857    0.00291545  50 t-inv F
 -0.428571  0.428571  0.142857    0.00291545  51 t-inv F
 -0.285714  0.428571  0.142857    0.00291545  52 t-inv F
 -0.142857  0.428571  0.142857    0.00291545  53 t-inv F
  0.000000 -0.428571  0.142857    0.00291545  54 t-inv F
  0.142857 -0.428571  0.142857    0.00291545  55 t-inv F
  0.285714 -0.428571  0.142857    0.00291545  56 t-inv F
  0.428571 -0.428571  0.142857    0.00291545  57 t-inv F
 -0.428571 -0.428571  0.142857    0.00291545  58 t-inv F
 -0.285714 -0.428571  0.142857    0.00291545  59 t-inv F
 -0.142857 -0.428571  0.142857    0.00291545  60 t-inv F
  0.000000 -0.285714  0.142857    0.00291545  61 t-inv F
  0.142857 -0.285714  0.142857    0.00291545  62 t-inv F
  0.285714 -0.285714  0.142857    0.00291545  63 t-inv F
  0.428571 -0.285714  0.142857    0.00291545  64 t-inv F
 -0.428571 -0.285714  0.142857    0.00291545  65 t-inv F
 -0.285714 -0.285714  0.142857    0.00291545  66 t-inv F
 -0.142857 -0.285714  0.142857    0.00291545  67 t-inv F
 -0.000000 -0.142857  0.142857    0.00291545  68 t-inv F
  0.142857 -0.142857  0.142857    0.00291545  69 t-inv F
  0.285714 -0.142857  0.142857    0.00291545  70 t-inv F
  0.428571 -0.142857  0.142857    0.00291545  71 t-inv F
 -0.428571 -0.142857  0.142857    0.00291545  72 t-inv F
 -0.285714 -0.142857  0.142857    0.00291545  73 t-inv F
 -0.142857 -0.142857  0.142857    0.00291545  74 t-inv F
  0.000000  0.000000  0.285714    0.00291545  75 t-inv F
  0.142857  0.000000  0.285714    0.00291545  76 t-inv F
  0.285714 -0.000000  0.285714    0.00291545  77 t-inv F
  0.428571 -0.000000  0.285714    0.00291545  78 t-inv F
 -0.428571 -0.000000  0.285714    0.00291545  79 t-inv F
 -0.285714 -0.000000  0.285714    0.00291545  80 t-inv F
 -0.142857  0.000000  0.285714    0.00291545  81 t-inv F
 -0.000000  0.142857  0.285714    0.00291545  82 t-inv F
  0.142857  0.142857  0.285714    0.00291545  83 t-inv F
  0.285714  0.142857  0.285714    0.00291545  84 t-inv F
  0.428571  0.142857  0.285714    0.00291545  85 t-inv F
 -0.428571  0.142857  0.285714    0.00291545  86 t-inv F
 -0.285714  0.142857  0.285714    0.00291545  87 t-inv F
 -0.142857  0.142857  0.285714    0.00291545  88 t-inv F
 -0.000000  0.285714  0.285714    0.00291545  89 t-inv F
  0.142857  0.285714  0.285714    0.00291545  90 t-inv F
  0.285714  0.285714  0.285714    0.00291545  91 t-inv F
  0.428571  0.285714  0.285714    0.00291545  92 t-inv F
 -0.428571  0.285714  0.285714    0.00291545  93 t-inv F
 -0.285714  0.285714  0.285714    0.00291545  94 t-inv F
 -0.142857  0.285714  0.285714    0.00291545  95 t-inv F
 -0.000000  0.428571  0.285714    0.00291545  96 t-inv F
  0.142857  0.428571  0.285714    0.00291545  97 t-inv F
  0.285714  0.428571  0.285714    0.00291545  98 t-inv F
  0.428571  0.428571  0.285714    0.00291545  99 t-inv F
 -0.428571  0.428571  0.285714    0.00291545 100 t-inv F
 -0.285714  0.428571  0.285714    0.00291545 101 t-inv F
 -0.142857  0.428571  0.285714    0.00291545 102 t-inv F
  0.000000 -0.428571  0.285714    0.00291545 103 t-inv F
  0.142857 -0.428571  0.285714    0.00291545 104 t-inv F
  0.285714 -0.428571  0.285714    0.00291545 105 t-inv F
  0.428571 -0.428571  0.285714    0.00291545 106 t-inv F
 -0.428571 -0.428571  0.285714    0.00291545 107 t-inv F
 -0.285714 -0.428571  0.285714    0.00291545 108 t-inv F
 -0.142857 -0.428571  0.285714    0.00291545 109 t-inv F
 -0.000000 -0.285714  0.285714    0.00291545 110 t-inv F
  0.142857 -0.285714  0.285714    0.00291545 111 t-inv F
  0.285714 -0.285714  0.285714    0.00291545 112 t-inv F
  0.428571 -0.285714  0.285714    0.00291545 113 t-inv F
 -0.428571 -0.285714  0.285714    0.00291545 114 t-inv F
 -0.285714 -0.285714  0.285714    0.00291545 115 t-inv F
 -0.142857 -0.285714  0.285714    0.00291545 116 t-inv F
  0.000000 -0.142857  0.285714    0.00291545 117 t-inv F
  0.142857 -0.142857  0.285714    0.00291545 118 t-inv F
  0.285714 -0.142857  0.285714    0.00291545 119 t-inv F
  0.428571 -0.142857  0.285714    0.00291545 120 t-inv F
 -0.428571 -0.142857  0.285714    0.00291545 121 t-inv F
 -0.285714 -0.142857  0.285714    0.00291545 122 t-inv F
 -0.142857 -0.142857  0.285714    0.00291545 123 t-inv F
 -0.000000  0.000000  0.428571    0.00291545 124 t-inv F
  0.142857 -0.000000  0.428571    0.00291545 125 t-inv F
  0.285714  0.000000  0.428571    0.00291545 126 t-inv F
  0.428571  0.000000  0.428571    0.00291545 127 t-inv F
 -0.428571  0.000000  0.428571    0.00291545 128 t-inv F
 -0.285714  0.000000  0.428571    0.00291545 129 t-inv F
 -0.142857  0.000000  0.428571    0.00291545 130 t-inv F
 -0.000000  0.142857  0.428571    0.00291545 131 t-inv F
  0.142857  0.142857  0.428571    0.00291545 132 t-inv F
  0.285714  0.142857  0.428571    0.00291545 133 t-inv F
  0.428571  0.142857  0.428571    0.00291545 134 t-inv F
 -0.428571  0.142857  0.428571    0.00291545 135 t-inv F
 -0.285714  0.142857  0.428571    0.00291545 136 t-inv F
 -0.142857  0.142857  0.428571    0.00291545 137 t-inv F
 -0.000000  0.285714  0.428571    0.00291545 138 t-inv F
  0.142857  0.285714  0.428571    0.00291545 139 t-inv F
  0.285714  0.285714  0.428571    0.00291545 140 t-inv F
  0.428571  0.285714  0.428571    0.00291545 141 t-inv F
 -0.428571  0.285714  0.428571    0.00291545 142 t-inv F
 -0.285714  0.285714  0.428571    0.00291545 143 t-inv F
 -0.142857  0.285714  0.428571    0.00291545 144 t-inv F
 -0.000000  0.428571  0.428571    0.00291545 145 t-inv F
  0.142857  0.428571  0.428571    0.00291545 146 t-inv F
  0.285714  0.428571  0.428571    0.00291545 147 t-inv F
  0.428571  0.428571  0.428571    0.00291545 148 t-inv F
 -0.428571  0.428571  0.428571    0.00291545 149 t-inv F
 -0.285714  0.428571  0.428571    0.00291545 150 t-inv F
 -0.142857  0.428571  0.428571    0.00291545 151 t-inv F
 -0.000000 -0.428571  0.428571    0.00291545 152 t-inv F
  0.142857 -0.428571  0.428571    0.00291545 153 t-inv F
  0.285714 -0.428571  0.428571    0.00291545 154 t-inv F
  0.428571 -0.428571  0.428571    0.00291545 155 t-inv F
 -0.428571 -0.428571  0.428571    0.00291545 156 t-inv F
 -0.285714 -0.428571  0.428571    0.00291545 157 t-inv F
 -0.142857 -0.428571  0.428571    0.00291545 158 t-inv F
 -0.000000 -0.285714  0.428571    0.00291545 159 t-inv F
  0.142857 -0.285714  0.428571    0.00291545 160 t-inv F
  0.285714 -0.285714  0.428571    0.00291545 161 t-inv F
  0.428571 -0.285714  0.428571    0.00291545 162 t-inv F
 -0.428571 -0.285714  0.428571    0.00291545 163 t-inv F
 -0.285714 -0.285714  0.428571    0.00291545 164 t-inv F
 -0.142857 -0.285714  0.428571    0.00291545 165 t-inv F
 -0.000000 -0.142857  0.428571    0.00291545 166 t-inv F
  0.142857 -0.142857  0.428571    0.00291545 167 t-inv F
  0.285714 -0.142857  0.428571    0.00291545 168 t-inv F
  0.428571 -0.142857  0.428571    0.00291545 169 t-inv F
 -0.428571 -0.142857  0.428571    0.00291545 170 t-inv F
 -0.285714 -0.142857  0.428571    0.00291545 171 t-inv F
 -0.142857 -0.142857  0.428571    0.00291545 172 t-inv F
 -0.142857  0.000000  0.000000    0.00291545   2 t-inv T
 -0.285714 -0.000000  0.000000    0.00291545   3 t-inv T
 -0.428571 -0.000000 -0.000000    0.00291545   4 t-inv T
  0.000000 -0.142857 -0.000000    0.00291545   5 t-inv T
 -0.142857 -0.142857  0.000000    0.00291545   6 t-inv T
 -0.285714 -0.142857  0.000000    0.00291545   7 t-inv T
 -0.428571 -0.142857  0.000000    0.00291545   8 t-inv T
  0.428571 -0.142857  0.000000    0.00291545   9 t-inv T
  0.285714 -0.142857 -0.000000    0.00291545  10 t-inv T
  0.142857 -0.142857  0.000000    0.00291545  11 t-inv T
  0.000000 -0.285714 -0.000000    0.00291545  12 t-inv T
 -0.142857 -0.285714  0.000000    0.00291545  13 t-inv T
 -0.285714 -0.285714  0.000000    0.00291545  14 t-inv T
 -0.428571 -0.285714  0.000000    0.00291545  15 t-inv T
  0.428571 -0.285714  0.000000    0.00291545  16 t-inv T
  0.285714 -0.285714 -0.000000    0.00291545  17 t-inv T
  0.142857 -0.285714  0.000000    0.00291545  18 t-inv T
  0.000000 -0.428571  0.000000    0.00291545  19 t-inv T
 -0.142857 -0.428571  0.000000    0.00291545  20 t-inv T
 -0.285714 -0.428571  0.000000    0.00291545  21 t-inv T
 -0.428571 -0.428571  0.000000    0.00291545  22 t-inv T
  0.428571 -0.428571  0.000000    0.00291545  23 t-inv T
  0.285714 -0.428571  0.000000    0.00291545  24 t-inv T
  0.142857 -0.428571 -0.000000    0.00291545  25 t-inv T
  0.000000  0.000000 -0.142857    0.00291545  26 t-inv T
 -0.142857  0.000000 -0.142857    0.00291545  27 t-inv T
 -0.285714  0.000000 -0.142857    0.00291545  28 t-inv T
 -0.428571 -0.000000 -0.142857    0.00291545  29 t-inv T
  0.428571  0.000000 -0.142857    0.00291545  30 t-inv T
  0.285714  0.000000 -0.142857    0.00291545  31 t-inv T
  0.142857 -0.000000 -0.142857    0.00291545  32 t-inv T
  0.000000 -0.142857 -0.142857    0.00291545  33 t-inv T
 -0.142857 -0.142857 -0.142857    0.00291545  34 t-inv T
 -0.285714 -0.142857 -0.142857    0.00291545  35 t-inv T
 -0.428571 -0.142857 -0.142857    0.00291545  36 t-inv T
  0.428571 -0.142857 -0.142857    0.00291545  37 t-inv T
  0.285714 -0.142857 -0.142857    0.00291545  38 t-inv T
  0.142857 -0.142857 -0.142857    0.00291545  39 t-inv T
  0.000000 -0.285714 -0.142857    0.00291545  40 t-inv T
 -0.142857 -0.285714 -0.142857    0.00291545  41 t-inv T
 -0.285714 -0.285714 -0.142857    0.00291545  42 t-inv T
 -0.428571 -0.285714 -0.142857    0.00291545  43 t-inv T
  0.428571 -0.285714 -0.142857    0.00291545  44 t-inv T
  0.285714 -0.285714 -0.142857    0.00291545  45 t-inv T
  0.142857 -0.285714 -0.142857    0.00291545  46 t-inv T
  0.000000 -0.428571 -0.142857    0.00291545  47 t-inv T
 -0.142857 -0.428571 -0.142857    0.00291545  48 t-inv T
 -0.285714 -0.428571 -0.142857    0.00291545  49 t-inv T
 -0.428571 -0.428571 -0.142857    0.00291545  50 t-inv T
  0.428571 -0.428571 -0.142857    0.00291545  51 t-inv T
  0.285714 -0.428571 -0.142857    0.00291545  52 t-inv T
  0.142857 -0.428571 -0.142857    0.00291545  53 t-inv T
  0.000000  0.428571 -0.142857    0.00291545  54 t-inv T
 -0.142857  0.428571 -0.142857    0.00291545  55 t-inv T
 -0.285714  0.428571 -0.142857    0.00291545  56 t-inv T
 -0.428571  0.428571 -0.142857    0.00291545  57 t-inv T
  0.428571  0.428571 -0.142857    0.00291545  58 t-inv T
  0.285714  0.428571 -0.142857    0.00291545  59 t-inv T
  0.142857  0.428571 -0.142857    0.00291545  60 t-inv T
 -0.000000  0.285714 -0.142857    0.00291545  61 t-inv T
 -0.142857  0.285714 -0.142857    0.00291545  62 t-inv T
 -0.285714  0.285714 -0.142857    0.00291545  63 t-inv T
 -0.428571  0.285714 -0.142857    0.00291545  64 t-inv T
  0.428571  0.285714 -0.142857    0.00291545  65 t-inv T
  0.285714  0.285714 -0.142857    0.00291545  66 t-inv T
  0.142857  0.285714 -0.142857    0.00291545  67 t-inv T
  0.000000  0.142857 -0.142857    0.00291545  68 t-inv T
 -0.142857  0.142857 -0.142857    0.00291545  69 t-inv T
 -0.285714  0.142857 -0.142857    0.00291545  70 t-inv T
 -0.428571  0.142857 -0.142857    0.00291545  71 t-inv T
  0.428571  0.142857 -0.142857    0.00291545  72 t-inv T
  0.285714  0.142857 -0.142857    0.00291545  73 t-inv T
  0.142857  0.142857 -0.142857    0.00291545  74 t-inv T
  0.000000 -0.000000 -0.285714    0.00291545  75 t-inv T
 -0.142857 -0.000000 -0.285714    0.00291545  76 t-inv T
 -0.285714  0.000000 -0.285714    0.00291545  77 t-inv T
 -0.428571  0.000000 -0.285714    0.00291545  78 t-inv T
  0.428571  0.000000 -0.285714    0.00291545  79 t-inv T
  0.285714  0.000000 -0.285714    0.00291545  80 t-inv T
  0.142857 -0.000000 -0.285714    0.00291545  81 t-inv T
  0.000000 -0.142857 -0.285714    0.00291545  82 t-inv T
 -0.142857 -0.142857 -0.285714    0.00291545  83 t-inv T
 -0.285714 -0.142857 -0.285714    0.00291545  84 t-inv T
 -0.428571 -0.142857 -0.285714    0.00291545  85 t-inv T
  0.428571 -0.142857 -0.285714    0.00291545  86 t-inv T
  0.285714 -0.142857 -0.285714    0.00291545  87 t-inv T
  0.142857 -0.142857 -0.285714    0.00291545  88 t-inv T
  0.000000 -0.285714 -0.285714    0.00291545  89 t-inv T
 -0.142857 -0.285714 -0.285714    0.00291545  90 t-inv T
 -0.285714 -0.285714 -0.285714    0.00291545  91 t-inv T
 -0.428571 -0.285714 -0.285714    0.00291545  92 t-inv T
  0.428571 -0.285714 -0.285714    0.00291545  93 t-inv T
  0.285714 -0.285714 -0.285714    0.00291545  94 t-inv T
  0.142857 -0.285714 -0.285714    0.00291545  95 t-inv T
  0.000000 -0.428571 -0.285714    0.00291545  96 t-inv T
 -0.142857 -0.428571 -0.285714    0.00291545  97 t-inv T
 -0.285714 -0.428571 -0.285714    0.00291545  98 t-inv T
 -0.428571 -0.428571 -0.285714    0.00291545  99 t-inv T
  0.428571 -0.428571 -0.285714    0.00291545 100 t-inv T
  0.285714 -0.428571 -0.285714    0.00291545 101 t-inv T
  0.142857 -0.428571 -0.285714    0.00291545 102 t-inv T
 -0.000000  0.428571 -0.285714    0.00291545 103 t-inv T
 -0.142857  0.428571 -0.285714    0.00291545 104 t-inv T
 -0.285714  0.428571 -0.285714    0.00291545 105 t-inv T
 -0.428571  0.428571 -0.285714    0.00291545 106 t-inv T
  0.428571  0.428571 -0.285714    0.00291545 107 t-inv T
  0.285714  0.428571 -0.285714    0.00291545 108 t-inv T
  0.142857  0.428571 -0.285714    0.00291545 109 t-inv T
  0.000000  0.285714 -0.285714    0.00291545 110 t-inv T
 -0.142857  0.285714 -0.285714    0.00291545 111 t-inv T
 -0.285714  0.285714 -0.285714    0.00291545 112 t-inv T
 -0.428571  0.285714 -0.285714    0.00291545 113 t-inv T
  0.428571  0.285714 -0.285714    0.00291545 114 t-inv T
  0.285714  0.285714 -0.285714    0.00291545 115 t-inv T
  0.142857  0.285714 -0.285714    0.00291545 116 t-inv T
  0.000000  0.142857 -0.285714    0.00291545 117 t-inv T
 -0.142857  0.142857 -0.285714    0.00291545 118 t-inv T
 -0.285714  0.142857 -0.285714    0.00291545 119 t-inv T
 -0.428571  0.142857 -0.285714    0.00291545 120 t-inv T
  0.428571  0.142857 -0.285714    0.00291545 121 t-inv T
  0.285714  0.142857 -0.285714    0.00291545 122 t-inv T
  0.142857  0.142857 -0.285714    0.00291545 123 t-inv T
  0.000000  0.000000 -0.428571    0.00291545 124 t-inv T
 -0.142857  0.000000 -0.428571    0.00291545 125 t-inv T
 -0.285714 -0.000000 -0.428571    0.00291545 126 t-inv T
 -0.428571 -0.000000 -0.428571    0.00291545 127 t-inv T
  0.428571 -0.000000 -0.428571    0.00291545 128 t-inv T
  0.285714 -0.000000 -0.428571    0.00291545 129 t-inv T
  0.142857 -0.000000 -0.428571    0.00291545 130 t-inv T
  0.000000 -0.142857 -0.428571    0.00291545 131 t-inv T
 -0.142857 -0.142857 -0.428571    0.00291545 132 t-inv T
 -0.285714 -0.142857 -0.428571    0.00291545 133 t-inv T
 -0.428571 -0.142857 -0.428571    0.00291545 134 t-inv T
  0.428571 -0.142857 -0.428571    0.00291545 135 t-inv T
  0.285714 -0.142857 -0.428571    0.00291545 136 t-inv T
  0.142857 -0.142857 -0.428571    0.00291545 137 t-inv T
  0.000000 -0.285714 -0.428571    0.00291545 138 t-inv T
 -0.142857 -0.285714 -0.428571    0.00291545 139 t-inv T
 -0.285714 -0.285714 -0.428571    0.00291545 140 t-inv T
 -0.428571 -0.285714 -0.428571    0.00291545 141 t-inv T
  0.428571 -0.285714 -0.428571    0.00291545 142 t-inv T
  0.285714 -0.285714 -0.428571    0.00291545 143 t-inv T
  0.142857 -0.285714 -0.428571    0.00291545 144 t-inv T
  0.000000 -0.428571 -0.428571    0.00291545 145 t-inv T
 -0.142857 -0.428571 -0.428571    0.00291545 146 t-inv T
 -0.285714 -0.428571 -0.428571    0.00291545 147 t-inv T
 -0.428571 -0.428571 -0.428571    0.00291545 148 t-inv T
  0.428571 -0.428571 -0.428571    0.00291545 149 t-inv T
  0.285714 -0.428571 -0.428571    0.00291545 150 t-inv T
  0.142857 -0.428571 -0.428571    0.00291545 151 t-inv T
  0.000000  0.428571 -0.428571    0.00291545 152 t-inv T
 -0.142857  0.428571 -0.428571    0.00291545 153 t-inv T
 -0.285714  0.428571 -0.428571    0.00291545 154 t-inv T
 -0.428571  0.428571 -0.428571    0.00291545 155 t-inv T
  0.428571  0.428571 -0.428571    0.00291545 156 t-inv T
  0.285714  0.428571 -0.428571    0.00291545 157 t-inv T
  0.142857  0.428571 -0.428571    0.00291545 158 t-inv T
  0.000000  0.285714 -0.428571    0.00291545 159 t-inv T
 -0.142857  0.285714 -0.428571    0.00291545 160 t-inv T
 -0.285714  0.285714 -0.428571    0.00291545 161 t-inv T
 -0.428571  0.285714 -0.428571    0.00291545 162 t-inv T
  0.428571  0.285714 -0.428571    0.00291545 163 t-inv T
  0.285714  0.285714 -0.428571    0.00291545 164 t-inv T
  0.142857  0.285714 -0.428571    0.00291545 165 t-inv T
  0.000000  0.142857 -0.428571    0.00291545 166 t-inv T
 -0.142857  0.142857 -0.428571    0.00291545 167 t-inv T
 -0.285714  0.142857 -0.428571    0.00291545 168 t-inv T
 -0.428571  0.142857 -0.428571    0.00291545 169 t-inv T
  0.428571  0.142857 -0.428571    0.00291545 170 t-inv T
  0.285714  0.142857 -0.428571    0.00291545 171 t-inv T
  0.142857  0.142857 -0.428571    0.00291545 172 t-inv T


--------------------------------------------------------------------------------------------------------




 Dimension of arrays:
   k-points           NKPTS =    172   k-points in BZ     NKDIM =    343   number of bands    NBANDS=    196
   number of dos      NEDOS =    301   number of ions     NIONS =      1
   non local maximal  LDIM  =      9   non local SUM 2l+1 LMDIM =     37
   total plane-waves  NPLWV =  21952
   max r-space proj   IRMAX =      1   max aug-charges    IRDMAX= 111272
   dimension x,y,z NGX =    28 NGY =   28 NGZ =   28
   dimension x,y,z NGXF=    56 NGYF=   56 NGZF=   56
   support grid    NGXF=   112 NGYF=  112 NGZF=  112
   ions per type =               1
   NGX,Y,Z   is equivalent  to a cutoff of  10.54, 10.54, 10.54 a.u.
   NGXF,Y,Z  is equivalent  to a cutoff of  21.09, 21.09, 21.09 a.u.

 SYSTEM =  Og_FCC                                  
 POSCAR =  Rn_FCC                                  

 Startparameter for this run:
   NWRITE =      1    write-flag & timer
   PREC   = accura    normal or accurate (medium, high low for compatibility)
   ISTART =      1    job   : 0-new  1-cont  2-samecut
   ICHARG =      0    charge: 1-file 2-atom 10-const
   ISPIN  =      1    spin polarized calculation?
   LNONCOLLINEAR =      F non collinear calculations
   LSORBIT =      F    spin-orbit coupling
   INIWAV =      1    electr: 0-lowe 1-rand  2-diag
   LASPH  =      F    aspherical Exc in radial PAW
   METAGGA=      F    non-selfconsistent MetaGGA calc.

 Electronic Relaxation 1
   ENCUT  =  300.0 eV  22.05 Ry    4.70 a.u.   6.23  6.23  6.23*2*pi/ulx,y,z
   ENINI  =  300.0     initial cutoff
   ENAUG  =  715.6 eV  augmentation charge cutoff
   NELM   =      1;   NELMIN=  2; NELMDL=  0     # of ELM steps 
   EDIFF  = 0.1E-07   stopping-criterion for ELM
   LREAL  =      F    real-space projection
   NLSPLINE    = F    spline interpolate recip. space projectors
   LCOMPAT=      F    compatible to vasp.4.4
   GGA_COMPAT  = F    GGA compatible to vasp.4.4-vasp.4.6
   LMAXPAW     = -100 max onsite density
   LMAXMIX     =    2 max onsite mixed and CHGCAR
   VOSKOWN=      0    Vosko Wilk Nusair interpolation
   ROPT   =    0.00000
 Ionic relaxation
   EDIFFG = 0.1E-04   stopping-criterion for IOM
   NSW    =      1    number of steps for IOM
   NBLOCK =      1;   KBLOCK =      1    inner block; outer block 
   IBRION =     -1    ionic relax: 0-MD 1-quasi-New 2-CG
   NFREE  =      5    steps in history (QN), initial steepest desc. (CG)
   ISIF   =      3    stress and relaxation
   IWAVPR =     10    prediction:  0-non 1-charg 2-wave 3-comb
   ISYM   =      0    0-nonsym 1-usesym 2-fastsym
   LCORR  =      T    Harris-Foulkes like correction to forces

   POTIM  = 0.1000    time-step for ionic-motion
   TEIN   =    0.0    initial temperature
   TEBEG  =    0.0;   TEEND  =   0.0 temperature during run
   SMASS  =  -3.00    Nose mass-parameter (am)
   estimated Nose-frequenzy (Omega)   =  0.10E-29 period in steps =****** mass=  -0.445E-27a.u.
   SCALEE = 1.0000    scale energy and forces
   NPACO  =    256;   APACO  = 16.0  distance and # of slots for P.C.
   PSTRESS=    0.0 pullay stress

  Mass of Ions in am
   POMASS = 220.17
  Ionic Valenz
   ZVAL   =  18.00
  Atomic Wigner-Seitz radii
   RWIGS  =  -1.00
  virtual crystal weights 
   VCA    =   1.00
   NELECT =      18.0000    total number of electrons
   NUPDOWN=      -1.0000    fix difference up-down

 DOS related values:
   EMIN   =  10.00;   EMAX   =-10.00  energy-range for DOS
   EFERMI =   0.00
   ISMEAR =     0;   SIGMA  =   0.00  broadening in eV -4-tet -1-fermi 0-gaus

 Electronic relaxation 2 (details)
   IALGO  =     38    algorithm
   LDIAG  =      T    sub-space diagonalisation (order eigenvalues)
   LSUBROT=      F    optimize rotation matrix (better conditioning)
   TURBO    =      0    0=normal 1=particle mesh
   IRESTART =      0    0=no restart 2=restart with 2 vectors
   NREBOOT  =      0    no. of reboots
   NMIN     =      0    reboot dimension
   EREF     =   0.00    reference energy to select bands
   IMIX   =      1    mixing-type and parameters
     AMIX     =   0.40;   BMIX     =  1.00
     AMIX_MAG =   1.60;   BMIX_MAG =  1.00
     AMIN     =   0.10
     WC   =   100.;   INIMIX=   1;  MIXPRE=   1;  MAXMIX=  50

 Intra band minimization:
   WEIMIN = 0.0000     energy-eigenvalue tresh-hold
   EBREAK =  0.13E-10  absolut break condition
   DEPER  =   0.30     relativ break condition  

   TIME   =   0.40     timestep for ELM

  volume/ion in A,a.u.               =      60.83       410.53
  Fermi-wavevector in a.u.,A,eV,Ry     =   1.090892  2.061487 16.191546  1.190045
  Thomas-Fermi vector in A             =   2.227126
 
 Write flags
   LWAVE        =      T    write WAVECAR
   LDOWNSAMPLE  =      F    k-point downsampling of WAVECAR
   LCHARG       =      F    write CHGCAR
   LVTOT        =      F    write LOCPOT, total local potential
   LVHAR        =      F    write LOCPOT, Hartree potential only
   LELF         =      F    write electronic localiz. function (ELF)
   LORBIT       =      0    0 simple, 1 ext, 2 COOP (PROOUT), +10 PAW based schemes


 Dipole corrections
   LMONO  =      F    monopole corrections only (constant potential shift)
   LDIPOL =      F    correct potential (dipole corrections)
   IDIPOL =      0    1-x, 2-y, 3-z, 4-all directions 
   EPSILON=  1.0000000 bulk dielectric constant

 Exchange correlation treatment:
   GGA     =    PE    GGA type
   LEXCH   =     8    internal setting for exchange type
   VOSKOWN=      0    Vosko Wilk Nusair interpolation
   EXXOEP  =     0    0=HF, 1=EXX-LHF (local Hartree Fock) 2=EXX OEP
   LHFCALC =     T    Hartree Fock is set to
   LSYMGRAD=     F    symmetrize gradient (conserves proper symmetry)
   PRECFOCK=normal    Normal, Fast or Accurate (Low or Medium for compatibility)
   LRHFCALC=     F    long range Hartree Fock
   LRSCOR  =     F    long range correlation only (use DFT for short range part)
   LTHOMAS =     F    Thomas Fermi screening in HF
   LMODELHF=     F    short range full HF, long range fraction AEXX
   ENCUT4O =  -1.0   cutoff for four orbital integrals eV
   LMAXFOCK=     4    L truncation for augmentation on plane wave grid
   LMAXFOCKAE=   4    L truncation for all-electron charge restoration on plane wave grid
   NMAXFOCKAE=   1    number of basis functions for all-electron charge restoration
   LFOCKAEDFT=     F  apply the AE augmentation even for DFT
   NKREDX  =     1    reduce k-point grid by
   NKREDY  =     1    reduce k-point grid by
   NKREDZ  =     1    reduce k-point grid by
   SHIFTRED=     F    shift reduced grid of Gamma
   HFKIDENT=     F    idential grid for each k-point
   ODDONLY =     F    use only odd q-grid points
   EVENONLY=     F    use only even q-grid points
   HFALPHA =   -1.0000 decay constant for conv. correction
   MCALPHA =    0.0000 extent of test-charge in conv. correction in multipole expansion
   AEXX    =    1.0000 exact exchange contribution
   HFSCREEN=    0.0000 screening length (either q_TF or 0.3 A-1)
   HFSCREENC=   0.0000 screening length for correlation (either q_TF or 0.3 A-1)
   HFRCUT  =    0.0000 spherical cutoff for potential kernel
   ALDAX   =    0.0000 LDA exchange part
   AGGAX   =    0.0000 GGA exchange part
   ALDAC   =    0.0000 LDA correlation
   AGGAC   =    0.0000 GGA correlation
   ENCUTFOCK=  -1.0 apply spherical cutoff to Coloumb kernel
   NBANDSGWLOW=     1    first orbital included in HF term
   NBLOCK_FOCK=    64    blocking factor in FOCK_ACC
 Linear response parameters
   LEPSILON=     F    determine dielectric tensor
   LRPA    =     F    only Hartree local field effects (RPA)
   LNABLA  =     F    use nabla operator in PAW spheres
   LVEL    =     F    velocity operator in full k-point grid
   LINTERFAST=   F  fast interpolation
   KINTER  =     0    interpolate to denser k-point grid
   CSHIFT  =0.1000    complex shift for real part using Kramers Kronig
   OMEGAMAX=  -1.0    maximum frequency
   DEG_THRESHOLD= 0.2000000E-02 threshold for treating states as degnerate
   RTIME   =   -0.100 relaxation time in fs
  (WPLASMAI=    0.000 imaginary part of plasma frequency in eV, 0.658/RTIME)
   DFIELD  = 0.0000000 0.0000000 0.0000000 field for delta impulse in time
 
 Orbital magnetization related:
   ORBITALMAG=     F  switch on orbital magnetization
   LCHIMAG   =     F  perturbation theory with respect to B field
   DQ        =  0.001000  dq finite difference perturbation B field
   LLRAUG    =     F  two centre corrections for induced B field

 Response functions by sum over occupied states:
   ALGO    =QPGW       execute GW part
   LFXC    =     F    include DFT xc kernel in TD-HF and W
   LADDER  =     F    particle hole ladder diagrams for BSE/TD-HF and W (Nano-quanta)
   LRPAFORCE=     F   calculate RPA forces
   LHARTREE=     T    include Hartree terms (bubbles-RPA) in BSE/TD-HF
   IBSE    =     0    BSE modus: 0 exact, 1 time-evolution (store matrix), 10 time-evolution (implicit)
   KPOINT  =    -1   0   0   0    k-point index at which BSE equation is solved (and G at which response is eval.)
   LTRIPLET=     F    triplet instead of singlet excitation (BSE only)
   LRSRPA  =     F    range separated RPA (total - short) in ACFDT
   LTCTE   =     F    use test-charge test-electron dielectric function
   LTETE   =     F    use test-electron test-electron dielectric function
   LFXCEPS =     F    determine f_xc=epsilon-1/Xi Sharma and Gross kernel
   LFXHEG  =     F    model exchange using f_x(G,k_F) from free electron gas
   NATURALO=     2    0 natural orbitals, 1 only virtual, 2 only occupied-virtual rotation
   L2ORDER =     F    2nd order terms only
   LMP2LT   =     F    use LT MP2
   LUSEW   =     F    use screened W from WXXXX.tmp files instead of (screened) HF kernel
   ENCUTGW = 200.0    cutoff for response function in eV
   ENCUTGWSOFT = 200.0 soft cutoff for Coulomb kernel in GW response function in eV
   ENCUTLF =  -1.0    cutoff for local field effects
   LMAXMP2 =    -1    maximum L for one center terms
   SCISSOR =   0.0    scissor correction
   NOMEGA  =    50    number of frequencies
   NOMEGAR =    50    number of frequencies along real axis
   NBANDSGW=    -1    number of bands for which selfenergy shift is calculated
   NBANDSGWLOW=     1 lowest band included in GW (to exclude core correlation)
   NBANDSO =    -1    number of bands for electron-hole treatment (occupied)
   NBANDSV =    -1    number of bands for electron-hole treatment (virtual)
   NELM    =     1    number of iterations in solving QP/BSE equation
   NELMHF  =     1    number of iterations in the inner HF iteration
   DIM     =     3    dimensionality of system (0=0D molecules, 3=3D)
   ANTIRES =     0    antiresonant part (0) no TDA (1) w=0 exact (2) accurate
   OMEGAMAX= -30.0    maximum frequency
   OMEGAMIN= -30.000    minimum frequency
   OMEGATL =-200.0    maximum frequency of tail
   OMEGAGRID=     0    grid type (0 default)
   CSHIFT  =-0.100    complex shift used in evaluation of response functions
   SELFENERGY=   F    calculate selfenergy instead of QP shifts
   LSPECTRAL =   T    use spectral functions                   
   LSPECTRALGW=   F   use spectral functions to calculate int dz G(w-z) W(z) (more accurate)
   LSINGLES  =   F   calculate the singles contribution to the correlation energy
   LFERMIGW  =   F   update Fermi-energy in the Greens function

   ODDONLYGW =   F    avoid all even points for polarizability 
   EVENONLYGW=   F    avoid all odd  points for polarizability 
   NKREDLFX  =   1   NKREDLFY  =   1   NKREDLFZ  =   1

   TELESCOPE =   0   use telescope k-point sampling
   TAUPAR    =   1   number of TAU groups used in imaginary time calculation
   OMEGAPAR  =  -1   number of OMEGA groups used in imaginary frequency calculation



--------------------------------------------------------------------------------------------------------


 Static calculation
 charge density and potential will be updated during run
 non-spin polarized calculation
 Variant of blocked Davidson
 Davidson routine will perform the subspace rotation
 perform sub-space diagonalisation
    after iterative eigenvector-optimisation
 Kerker-like  mixing scheme
 using additional bands          187
 reciprocal scheme for non local part
 use partial core corrections
 calculate Harris-corrections to forces 
   (improved forces if not selfconsistent)
 use gradient corrections 
 use of overlap-Matrix (Vanderbilt PP)
 Gauss-broadening in eV      SIGMA  =   0.00


--------------------------------------------------------------------------------------------------------


  energy-cutoff  :      300.00
  volume of cell :       60.83
      direct lattice vectors                 reciprocal lattice vectors
     4.414575608  0.000000000  0.000000000     0.226522341 -0.130782734 -0.092477358
     2.207287804  3.823134623 -0.000000000     0.000000000  0.261565469 -0.092477358
     2.207287804  1.274378208  3.604485890    -0.000000000  0.000000000  0.277432075

  length of vectors
     4.414575608  4.414575608  4.414575608     0.277432075  0.277432075  0.277432075


 
 old parameters found on file WAVECAR:
  energy-cutoff  :      300.00
  volume of cell :       60.83
      direct lattice vectors                 reciprocal lattice vectors
     4.414575608  0.000000000  0.000000000     0.226522341 -0.130782734 -0.092477358
     2.207287804  3.823134623 -0.000000000     0.000000000  0.261565469 -0.092477358
     2.207287804  1.274378208  3.604485890    -0.000000000  0.000000000  0.277432075

  length of vectors

 
 k-points in units of 2pi/SCALE and weight: k-points                                
   0.00000000  0.00000000  0.00000000       0.003
   0.03160161 -0.01824520 -0.01290130       0.006
   0.06320323 -0.03649040 -0.02580261       0.006
   0.09480484 -0.05473560 -0.03870391       0.006
   0.00000000  0.03649040 -0.01290130       0.006
   0.03160161  0.01824520 -0.02580261       0.006
   0.06320323  0.00000000 -0.03870391       0.006
   0.09480484 -0.01824520 -0.05160522       0.006
  -0.09480484  0.09122600  0.02580261       0.006
  -0.06320323  0.07298080  0.01290130       0.006
  -0.03160161  0.05473560  0.00000000       0.006
   0.00000000  0.07298080 -0.02580261       0.006
   0.03160161  0.05473560 -0.03870391       0.006
   0.06320323  0.03649040 -0.05160522       0.006
   0.09480484  0.01824520 -0.06450652       0.006
  -0.09480484  0.12771640  0.01290130       0.006
  -0.06320323  0.10947120  0.00000000       0.006
  -0.03160161  0.09122600 -0.01290130       0.006
   0.00000000  0.10947120 -0.03870391       0.006
   0.03160161  0.09122600 -0.05160522       0.006
   0.06320323  0.07298080 -0.06450652       0.006
   0.09480484  0.05473560 -0.07740783       0.006
  -0.09480484  0.16420680  0.00000000       0.006
  -0.06320323  0.14596160 -0.01290130       0.006
  -0.03160161  0.12771640 -0.02580261       0.006
  -0.00000000  0.00000000  0.03870391       0.006
   0.03160161 -0.01824520  0.02580261       0.006
   0.06320323 -0.03649040  0.01290130       0.006
   0.09480484 -0.05473560 -0.00000000       0.006
  -0.09480484  0.05473560  0.07740783       0.006
  -0.06320323  0.03649040  0.06450652       0.006
  -0.03160161  0.01824520  0.05160522       0.006
  -0.00000000  0.03649040  0.02580261       0.006
   0.03160161  0.01824520  0.01290130       0.006
   0.06320323  0.00000000  0.00000000       0.006
   0.09480484 -0.01824520 -0.01290130       0.006
  -0.09480484  0.09122600  0.06450652       0.006
  -0.06320323  0.07298080  0.05160522       0.006
  -0.03160161  0.05473560  0.03870391       0.006
  -0.00000000  0.07298080  0.01290130       0.006
   0.03160161  0.05473560  0.00000000       0.006
   0.06320323  0.03649040 -0.01290130       0.006
   0.09480484  0.01824520 -0.02580261       0.006
  -0.09480484  0.12771640  0.05160522       0.006
  -0.06320323  0.10947120  0.03870391       0.006
  -0.03160161  0.09122600  0.02580261       0.006
  -0.00000000  0.10947120  0.00000000       0.006
   0.03160161  0.09122600 -0.01290130       0.006
   0.06320323  0.07298080 -0.02580261       0.006
   0.09480484  0.05473560 -0.03870391       0.006
  -0.09480484  0.16420680  0.03870391       0.006
  -0.06320323  0.14596160  0.02580261       0.006
  -0.03160161  0.12771640  0.01290130       0.006
  -0.00000000 -0.10947120  0.07740783       0.006
   0.03160161 -0.12771640  0.06450652       0.006
   0.06320323 -0.14596160  0.05160522       0.006
   0.09480484 -0.16420680  0.03870391       0.006
  -0.09480484 -0.05473560  0.11611174       0.006
  -0.06320323 -0.07298080  0.10321044       0.006
  -0.03160161 -0.09122600  0.09030913       0.006
  -0.00000000 -0.07298080  0.06450652       0.006
   0.03160161 -0.09122600  0.05160522       0.006
   0.06320323 -0.10947120  0.03870391       0.006
   0.09480484 -0.12771640  0.02580261       0.006
  -0.09480484 -0.01824520  0.10321044       0.006
  -0.06320323 -0.03649040  0.09030913       0.006
  -0.03160161 -0.05473560  0.07740783       0.006
  -0.00000000 -0.03649040  0.05160522       0.006
   0.03160161 -0.05473560  0.03870391       0.006
   0.06320323 -0.07298080  0.02580261       0.006
   0.09480484 -0.09122600  0.01290130       0.006
  -0.09480484  0.01824520  0.09030913       0.006
  -0.06320323 -0.00000000  0.07740783       0.006
  -0.03160161 -0.01824520  0.06450652       0.006
  -0.00000000  0.00000000  0.07740783       0.006
   0.03160161 -0.01824520  0.06450652       0.006
   0.06320323 -0.03649040  0.05160522       0.006
   0.09480484 -0.05473560  0.03870391       0.006
  -0.09480484  0.05473560  0.11611174       0.006
  -0.06320323  0.03649040  0.10321044       0.006
  -0.03160161  0.01824520  0.09030913       0.006
  -0.00000000  0.03649040  0.06450652       0.006
   0.03160161  0.01824520  0.05160522       0.006
   0.06320323  0.00000000  0.03870391       0.006
   0.09480484 -0.01824520  0.02580261       0.006
  -0.09480484  0.09122600  0.10321044       0.006
  -0.06320323  0.07298080  0.09030913       0.006
  -0.03160161  0.05473560  0.07740783       0.006
  -0.00000000  0.07298080  0.05160522       0.006
   0.03160161  0.05473560  0.03870391       0.006
   0.06320323  0.03649040  0.02580261       0.006
   0.09480484  0.01824520  0.01290130       0.006
  -0.09480484  0.12771640  0.09030913       0.006
  -0.06320323  0.10947120  0.07740783       0.006
  -0.03160161  0.09122600  0.06450652       0.006
  -0.00000000  0.10947120  0.03870391       0.006
   0.03160161  0.09122600  0.02580261       0.006
   0.06320323  0.07298080  0.01290130       0.006
   0.09480484  0.05473560  0.00000000       0.006
  -0.09480484  0.16420680  0.07740783       0.006
  -0.06320323  0.14596160  0.06450652       0.006
  -0.03160161  0.12771640  0.05160522       0.006
  -0.00000000 -0.10947120  0.11611174       0.006
   0.03160161 -0.12771640  0.10321044       0.006
   0.06320323 -0.14596160  0.09030913       0.006
   0.09480484 -0.16420680  0.07740783       0.006
  -0.09480484 -0.05473560  0.15481566       0.006
  -0.06320323 -0.07298080  0.14191435       0.006
  -0.03160161 -0.09122600  0.12901305       0.006
  -0.00000000 -0.07298080  0.10321044       0.006
   0.03160161 -0.09122600  0.09030913       0.006
   0.06320323 -0.10947120  0.07740783       0.006
   0.09480484 -0.12771640  0.06450652       0.006
  -0.09480484 -0.01824520  0.14191435       0.006
  -0.06320323 -0.03649040  0.12901305       0.006
  -0.03160161 -0.05473560  0.11611174       0.006
  -0.00000000 -0.03649040  0.09030913       0.006
   0.03160161 -0.05473560  0.07740783       0.006
   0.06320323 -0.07298080  0.06450652       0.006
   0.09480484 -0.09122600  0.05160522       0.006
  -0.09480484  0.01824520  0.12901305       0.006
  -0.06320323 -0.00000000  0.11611174       0.006
  -0.03160161 -0.01824520  0.10321044       0.006
  -0.00000000  0.00000000  0.11611174       0.006
   0.03160161 -0.01824520  0.10321044       0.006
   0.06320323 -0.03649040  0.09030913       0.006
   0.09480484 -0.05473560  0.07740783       0.006
  -0.09480484  0.05473560  0.15481566       0.006
  -0.06320323  0.03649040  0.14191435       0.006
  -0.03160161  0.01824520  0.12901305       0.006
  -0.00000000  0.03649040  0.10321044       0.006
   0.03160161  0.01824520  0.09030913       0.006
   0.06320323  0.00000000  0.07740783       0.006
   0.09480484 -0.01824520  0.06450652       0.006
  -0.09480484  0.09122600  0.14191435       0.006
  -0.06320323  0.07298080  0.12901305       0.006
  -0.03160161  0.05473560  0.11611174       0.006
  -0.00000000  0.07298080  0.09030913       0.006
   0.03160161  0.05473560  0.07740783       0.006
   0.06320323  0.03649040  0.06450652       0.006
   0.09480484  0.01824520  0.05160522       0.006
  -0.09480484  0.12771640  0.12901305       0.006
  -0.06320323  0.10947120  0.11611174       0.006
  -0.03160161  0.09122600  0.10321044       0.006
  -0.00000000  0.10947120  0.07740783       0.006
   0.03160161  0.09122600  0.06450652       0.006
   0.06320323  0.07298080  0.05160522       0.006
   0.09480484  0.05473560  0.03870391       0.006
  -0.09480484  0.16420680  0.11611174       0.006
  -0.06320323  0.14596160  0.10321044       0.006
  -0.03160161  0.12771640  0.09030913       0.006
  -0.00000000 -0.10947120  0.15481566       0.006
   0.03160161 -0.12771640  0.14191435       0.006
   0.06320323 -0.14596160  0.12901305       0.006
   0.09480484 -0.16420680  0.11611174       0.006
  -0.09480484 -0.05473560  0.19351957       0.006
  -0.06320323 -0.07298080  0.18061827       0.006
  -0.03160161 -0.09122600  0.16771696       0.006
  -0.00000000 -0.07298080  0.14191435       0.006
   0.03160161 -0.09122600  0.12901305       0.006
   0.06320323 -0.10947120  0.11611174       0.006
   0.09480484 -0.12771640  0.10321044       0.006
  -0.09480484 -0.01824520  0.18061827       0.006
  -0.06320323 -0.03649040  0.16771696       0.006
  -0.03160161 -0.05473560  0.15481566       0.006
  -0.00000000 -0.03649040  0.12901305       0.006
   0.03160161 -0.05473560  0.11611174       0.006
   0.06320323 -0.07298080  0.10321044       0.006
   0.09480484 -0.09122600  0.09030913       0.006
  -0.09480484  0.01824520  0.16771696       0.006
  -0.06320323 -0.00000000  0.15481566       0.006
  -0.03160161 -0.01824520  0.14191435       0.006
 
 k-points in reciprocal lattice and weights: k-points                                
   0.00000000  0.00000000  0.00000000       0.003
   0.14285714 -0.00000000 -0.00000000       0.006
   0.28571429  0.00000000 -0.00000000       0.006
   0.42857143  0.00000000  0.00000000       0.006
   0.00000000  0.14285714  0.00000000       0.006
   0.14285714  0.14285714 -0.00000000       0.006
   0.28571429  0.14285714 -0.00000000       0.006
   0.42857143  0.14285714  0.00000000       0.006
  -0.42857143  0.14285714 -0.00000000       0.006
  -0.28571429  0.14285714  0.00000000       0.006
  -0.14285714  0.14285714 -0.00000000       0.006
   0.00000000  0.28571429  0.00000000       0.006
   0.14285714  0.28571429 -0.00000000       0.006
   0.28571429  0.28571429 -0.00000000       0.006
   0.42857143  0.28571429  0.00000000       0.006
  -0.42857143  0.28571429  0.00000000       0.006
  -0.28571429  0.28571429  0.00000000       0.006
  -0.14285714  0.28571429 -0.00000000       0.006
   0.00000000  0.42857143  0.00000000       0.006
   0.14285714  0.42857143  0.00000000       0.006
   0.28571429  0.42857143  0.00000000       0.006
   0.42857143  0.42857143  0.00000000       0.006
  -0.42857143  0.42857143 -0.00000000       0.006
  -0.28571429  0.42857143 -0.00000000       0.006
  -0.14285714  0.42857143  0.00000000       0.006
   0.00000000  0.00000000  0.14285714       0.006
   0.14285714 -0.00000000  0.14285714       0.006
   0.28571429 -0.00000000  0.14285714       0.006
   0.42857143  0.00000000  0.14285714       0.006
  -0.42857143 -0.00000000  0.14285714       0.006
  -0.28571429 -0.00000000  0.14285714       0.006
  -0.14285714  0.00000000  0.14285714       0.006
  -0.00000000  0.14285714  0.14285714       0.006
   0.14285714  0.14285714  0.14285714       0.006
   0.28571429  0.14285714  0.14285714       0.006
   0.42857143  0.14285714  0.14285714       0.006
  -0.42857143  0.14285714  0.14285714       0.006
  -0.28571429  0.14285714  0.14285714       0.006
  -0.14285714  0.14285714  0.14285714       0.006
  -0.00000000  0.28571429  0.14285714       0.006
   0.14285714  0.28571429  0.14285714       0.006
   0.28571429  0.28571429  0.14285714       0.006
   0.42857143  0.28571429  0.14285714       0.006
  -0.42857143  0.28571429  0.14285714       0.006
  -0.28571429  0.28571429  0.14285714       0.006
  -0.14285714  0.28571429  0.14285714       0.006
  -0.00000000  0.42857143  0.14285714       0.006
   0.14285714  0.42857143  0.14285714       0.006
   0.28571429  0.42857143  0.14285714       0.006
   0.42857143  0.42857143  0.14285714       0.006
  -0.42857143  0.42857143  0.14285714       0.006
  -0.28571429  0.42857143  0.14285714       0.006
  -0.14285714  0.42857143  0.14285714       0.006
   0.00000000 -0.42857143  0.14285714       0.006
   0.14285714 -0.42857143  0.14285714       0.006
   0.28571429 -0.42857143  0.14285714       0.006
   0.42857143 -0.42857143  0.14285714       0.006
  -0.42857143 -0.42857143  0.14285714       0.006
  -0.28571429 -0.42857143  0.14285714       0.006
  -0.14285714 -0.42857143  0.14285714       0.006
   0.00000000 -0.28571429  0.14285714       0.006
   0.14285714 -0.28571429  0.14285714       0.006
   0.28571429 -0.28571429  0.14285714       0.006
   0.42857143 -0.28571429  0.14285714       0.006
  -0.42857143 -0.28571429  0.14285714       0.006
  -0.28571429 -0.28571429  0.14285714       0.006
  -0.14285714 -0.28571429  0.14285714       0.006
  -0.00000000 -0.14285714  0.14285714       0.006
   0.14285714 -0.14285714  0.14285714       0.006
   0.28571429 -0.14285714  0.14285714       0.006
   0.42857143 -0.14285714  0.14285714       0.006
  -0.42857143 -0.14285714  0.14285714       0.006
  -0.28571429 -0.14285714  0.14285714       0.006
  -0.14285714 -0.14285714  0.14285714       0.006
   0.00000000  0.00000000  0.28571429       0.006
   0.14285714  0.00000000  0.28571429       0.006
   0.28571429 -0.00000000  0.28571429       0.006
   0.42857143 -0.00000000  0.28571429       0.006
  -0.42857143 -0.00000000  0.28571429       0.006
  -0.28571429 -0.00000000  0.28571429       0.006
  -0.14285714  0.00000000  0.28571429       0.006
  -0.00000000  0.14285714  0.28571429       0.006
   0.14285714  0.14285714  0.28571429       0.006
   0.28571429  0.14285714  0.28571429       0.006
   0.42857143  0.14285714  0.28571429       0.006
  -0.42857143  0.14285714  0.28571429       0.006
  -0.28571429  0.14285714  0.28571429       0.006
  -0.14285714  0.14285714  0.28571429       0.006
  -0.00000000  0.28571429  0.28571429       0.006
   0.14285714  0.28571429  0.28571429       0.006
   0.28571429  0.28571429  0.28571429       0.006
   0.42857143  0.28571429  0.28571429       0.006
  -0.42857143  0.28571429  0.28571429       0.006
  -0.28571429  0.28571429  0.28571429       0.006
  -0.14285714  0.28571429  0.28571429       0.006
  -0.00000000  0.42857143  0.28571429       0.006
   0.14285714  0.42857143  0.28571429       0.006
   0.28571429  0.42857143  0.28571429       0.006
   0.42857143  0.42857143  0.28571429       0.006
  -0.42857143  0.42857143  0.28571429       0.006
  -0.28571429  0.42857143  0.28571429       0.006
  -0.14285714  0.42857143  0.28571429       0.006
   0.00000000 -0.42857143  0.28571429       0.006
   0.14285714 -0.42857143  0.28571429       0.006
   0.28571429 -0.42857143  0.28571429       0.006
   0.42857143 -0.42857143  0.28571429       0.006
  -0.42857143 -0.42857143  0.28571429       0.006
  -0.28571429 -0.42857143  0.28571429       0.006
  -0.14285714 -0.42857143  0.28571429       0.006
  -0.00000000 -0.28571429  0.28571429       0.006
   0.14285714 -0.28571429  0.28571429       0.006
   0.28571429 -0.28571429  0.28571429       0.006
   0.42857143 -0.28571429  0.28571429       0.006
  -0.42857143 -0.28571429  0.28571429       0.006
  -0.28571429 -0.28571429  0.28571429       0.006
  -0.14285714 -0.28571429  0.28571429       0.006
   0.00000000 -0.14285714  0.28571429       0.006
   0.14285714 -0.14285714  0.28571429       0.006
   0.28571429 -0.14285714  0.28571429       0.006
   0.42857143 -0.14285714  0.28571429       0.006
  -0.42857143 -0.14285714  0.28571429       0.006
  -0.28571429 -0.14285714  0.28571429       0.006
  -0.14285714 -0.14285714  0.28571429       0.006
  -0.00000000  0.00000000  0.42857143       0.006
   0.14285714 -0.00000000  0.42857143       0.006
   0.28571429  0.00000000  0.42857143       0.006
   0.42857143  0.00000000  0.42857143       0.006
  -0.42857143  0.00000000  0.42857143       0.006
  -0.28571429  0.00000000  0.42857143       0.006
  -0.14285714  0.00000000  0.42857143       0.006
  -0.00000000  0.14285714  0.42857143       0.006
   0.14285714  0.14285714  0.42857143       0.006
   0.28571429  0.14285714  0.42857143       0.006
   0.42857143  0.14285714  0.42857143       0.006
  -0.42857143  0.14285714  0.42857143       0.006
  -0.28571429  0.14285714  0.42857143       0.006
  -0.14285714  0.14285714  0.42857143       0.006
  -0.00000000  0.28571429  0.42857143       0.006
   0.14285714  0.28571429  0.42857143       0.006
   0.28571429  0.28571429  0.42857143       0.006
   0.42857143  0.28571429  0.42857143       0.006
  -0.42857143  0.28571429  0.42857143       0.006
  -0.28571429  0.28571429  0.42857143       0.006
  -0.14285714  0.28571429  0.42857143       0.006
  -0.00000000  0.42857143  0.42857143       0.006
   0.14285714  0.42857143  0.42857143       0.006
   0.28571429  0.42857143  0.42857143       0.006
   0.42857143  0.42857143  0.42857143       0.006
  -0.42857143  0.42857143  0.42857143       0.006
  -0.28571429  0.42857143  0.42857143       0.006
  -0.14285714  0.42857143  0.42857143       0.006
  -0.00000000 -0.42857143  0.42857143       0.006
   0.14285714 -0.42857143  0.42857143       0.006
   0.28571429 -0.42857143  0.42857143       0.006
   0.42857143 -0.42857143  0.42857143       0.006
  -0.42857143 -0.42857143  0.42857143       0.006
  -0.28571429 -0.42857143  0.42857143       0.006
  -0.14285714 -0.42857143  0.42857143       0.006
  -0.00000000 -0.28571429  0.42857143       0.006
   0.14285714 -0.28571429  0.42857143       0.006
   0.28571429 -0.28571429  0.42857143       0.006
   0.42857143 -0.28571429  0.42857143       0.006
  -0.42857143 -0.28571429  0.42857143       0.006
  -0.28571429 -0.28571429  0.42857143       0.006
  -0.14285714 -0.28571429  0.42857143       0.006
  -0.00000000 -0.14285714  0.42857143       0.006
   0.14285714 -0.14285714  0.42857143       0.006
   0.28571429 -0.14285714  0.42857143       0.006
   0.42857143 -0.14285714  0.42857143       0.006
  -0.42857143 -0.14285714  0.42857143       0.006
  -0.28571429 -0.14285714  0.42857143       0.006
  -0.14285714 -0.14285714  0.42857143       0.006
 
 position of ions in fractional coordinates (direct lattice) 
   0.00000000  0.00000000  0.00000000
 
 position of ions in cartesian coordinates  (Angst):
   0.00000000  0.00000000  0.00000000
 


--------------------------------------------------------------------------------------------------------


 k-point  1 :   0.0000 0.0000 0.0000  plane waves:     725
 k-point  2 :   0.1429-0.0000-0.0000  plane waves:     712
 k-point  3 :   0.2857 0.0000-0.0000  plane waves:     718
 k-point  4 :   0.4286 0.0000 0.0000  plane waves:     724
 k-point  5 :   0.0000 0.1429 0.0000  plane waves:     712
 k-point  6 :   0.1429 0.1429-0.0000  plane waves:     701
 k-point  7 :   0.2857 0.1429-0.0000  plane waves:     710
 k-point  8 :   0.4286 0.1429 0.0000  plane waves:     714
 k-point  9 :  -0.4286 0.1429-0.0000  plane waves:     716
 k-point 10 :  -0.2857 0.1429 0.0000  plane waves:     722
 k-point 11 :  -0.1429 0.1429-0.0000  plane waves:     714
 k-point 12 :   0.0000 0.2857 0.0000  plane waves:     718
 k-point 13 :   0.1429 0.2857-0.0000  plane waves:     710
 k-point 14 :   0.2857 0.2857-0.0000  plane waves:     721
 k-point 15 :   0.4286 0.2857 0.0000  plane waves:     722
 k-point 16 :  -0.4286 0.2857 0.0000  plane waves:     718
 k-point 17 :  -0.2857 0.2857 0.0000  plane waves:     706
 k-point 18 :  -0.1429 0.2857-0.0000  plane waves:     722
 k-point 19 :   0.0000 0.4286 0.0000  plane waves:     724
 k-point 20 :   0.1429 0.4286 0.0000  plane waves:     714
 k-point 21 :   0.2857 0.4286 0.0000  plane waves:     722
 k-point 22 :   0.4286 0.4286 0.0000  plane waves:     716
 k-point 23 :  -0.4286 0.4286-0.0000  plane waves:     726
 k-point 24 :  -0.2857 0.4286-0.0000  plane waves:     718
 k-point 25 :  -0.1429 0.4286 0.0000  plane waves:     716
 k-point 26 :   0.0000 0.0000 0.1429  plane waves:     712
 k-point 27 :   0.1429-0.0000 0.1429  plane waves:     701
 k-point 28 :   0.2857-0.0000 0.1429  plane waves:     710
 k-point 29 :   0.4286 0.0000 0.1429  plane waves:     714
 k-point 30 :  -0.4286-0.0000 0.1429  plane waves:     716
 k-point 31 :  -0.2857-0.0000 0.1429  plane waves:     722
 k-point 32 :  -0.1429 0.0000 0.1429  plane waves:     714
 k-point 33 :  -0.0000 0.1429 0.1429  plane waves:     701
 k-point 34 :   0.1429 0.1429 0.1429  plane waves:     712
 k-point 35 :   0.2857 0.1429 0.1429  plane waves:     714
 k-point 36 :   0.4286 0.1429 0.1429  plane waves:     722
 k-point 37 :  -0.4286 0.1429 0.1429  plane waves:     716
 k-point 38 :  -0.2857 0.1429 0.1429  plane waves:     714
 k-point 39 :  -0.1429 0.1429 0.1429  plane waves:     710
 k-point 40 :  -0.0000 0.2857 0.1429  plane waves:     710
 k-point 41 :   0.1429 0.2857 0.1429  plane waves:     714
 k-point 42 :   0.2857 0.2857 0.1429  plane waves:     710
 k-point 43 :   0.4286 0.2857 0.1429  plane waves:     722
 k-point 44 :  -0.4286 0.2857 0.1429  plane waves:     721
 k-point 45 :  -0.2857 0.2857 0.1429  plane waves:     721
 k-point 46 :  -0.1429 0.2857 0.1429  plane waves:     722
 k-point 47 :  -0.0000 0.4286 0.1429  plane waves:     714
 k-point 48 :   0.1429 0.4286 0.1429  plane waves:     722
 k-point 49 :   0.2857 0.4286 0.1429  plane waves:     722
 k-point 50 :   0.4286 0.4286 0.1429  plane waves:     722
 k-point 51 :  -0.4286 0.4286 0.1429  plane waves:     721
 k-point 52 :  -0.2857 0.4286 0.1429  plane waves:     715
 k-point 53 :  -0.1429 0.4286 0.1429  plane waves:     721
 k-point 54 :   0.0000-0.4286 0.1429  plane waves:     716
 k-point 55 :   0.1429-0.4286 0.1429  plane waves:     716
 k-point 56 :   0.2857-0.4286 0.1429  plane waves:     721
 k-point 57 :   0.4286-0.4286 0.1429  plane waves:     721
 k-point 58 :  -0.4286-0.4286 0.1429  plane waves:     726
 k-point 59 :  -0.2857-0.4286 0.1429  plane waves:     721
 k-point 60 :  -0.1429-0.4286 0.1429  plane waves:     721
 k-point 61 :   0.0000-0.2857 0.1429  plane waves:     722
 k-point 62 :   0.1429-0.2857 0.1429  plane waves:     714
 k-point 63 :   0.2857-0.2857 0.1429  plane waves:     721
 k-point 64 :   0.4286-0.2857 0.1429  plane waves:     715
 k-point 65 :  -0.4286-0.2857 0.1429  plane waves:     721
 k-point 66 :  -0.2857-0.2857 0.1429  plane waves:     722
 k-point 67 :  -0.1429-0.2857 0.1429  plane waves:     722
 k-point 68 :  -0.0000-0.1429 0.1429  plane waves:     714
 k-point 69 :   0.1429-0.1429 0.1429  plane waves:     710
 k-point 70 :   0.2857-0.1429 0.1429  plane waves:     722
 k-point 71 :   0.4286-0.1429 0.1429  plane waves:     721
 k-point 72 :  -0.4286-0.1429 0.1429  plane waves:     721
 k-point 73 :  -0.2857-0.1429 0.1429  plane waves:     722
 k-point 74 :  -0.1429-0.1429 0.1429  plane waves:     710
 k-point 75 :   0.0000 0.0000 0.2857  plane waves:     718
 k-point 76 :   0.1429 0.0000 0.2857  plane waves:     710
 k-point 77 :   0.2857-0.0000 0.2857  plane waves:     721
 k-point 78 :   0.4286-0.0000 0.2857  plane waves:     722
 k-point 79 :  -0.4286-0.0000 0.2857  plane waves:     718
 k-point 80 :  -0.2857-0.0000 0.2857  plane waves:     706
 k-point 81 :  -0.1429 0.0000 0.2857  plane waves:     722
 k-point 82 :  -0.0000 0.1429 0.2857  plane waves:     710
 k-point 83 :   0.1429 0.1429 0.2857  plane waves:     714
 k-point 84 :   0.2857 0.1429 0.2857  plane waves:     710
 k-point 85 :   0.4286 0.1429 0.2857  plane waves:     722
 k-point 86 :  -0.4286 0.1429 0.2857  plane waves:     721
 k-point 87 :  -0.2857 0.1429 0.2857  plane waves:     721
 k-point 88 :  -0.1429 0.1429 0.2857  plane waves:     722
 k-point 89 :  -0.0000 0.2857 0.2857  plane waves:     721
 k-point 90 :   0.1429 0.2857 0.2857  plane waves:     710
 k-point 91 :   0.2857 0.2857 0.2857  plane waves:     718
 k-point 92 :   0.4286 0.2857 0.2857  plane waves:     722
 k-point 93 :  -0.4286 0.2857 0.2857  plane waves:     706
 k-point 94 :  -0.2857 0.2857 0.2857  plane waves:     718
 k-point 95 :  -0.1429 0.2857 0.2857  plane waves:     722
 k-point 96 :  -0.0000 0.4286 0.2857  plane waves:     722
 k-point 97 :   0.1429 0.4286 0.2857  plane waves:     722
 k-point 98 :   0.2857 0.4286 0.2857  plane waves:     722
 k-point 99 :   0.4286 0.4286 0.2857  plane waves:     714
 k-point ** :  -0.4286 0.4286 0.2857  plane waves:     721
 k-point ** :  -0.2857 0.4286 0.2857  plane waves:     715
 k-point ** :  -0.1429 0.4286 0.2857  plane waves:     721
 k-point ** :   0.0000-0.4286 0.2857  plane waves:     718
 k-point ** :   0.1429-0.4286 0.2857  plane waves:     721
 k-point ** :   0.2857-0.4286 0.2857  plane waves:     706
 k-point ** :   0.4286-0.4286 0.2857  plane waves:     721
 k-point ** :  -0.4286-0.4286 0.2857  plane waves:     718
 k-point ** :  -0.2857-0.4286 0.2857  plane waves:     715
 k-point ** :  -0.1429-0.4286 0.2857  plane waves:     715
 k-point ** :  -0.0000-0.2857 0.2857  plane waves:     706
 k-point ** :   0.1429-0.2857 0.2857  plane waves:     721
 k-point ** :   0.2857-0.2857 0.2857  plane waves:     718
 k-point ** :   0.4286-0.2857 0.2857  plane waves:     715
 k-point ** :  -0.4286-0.2857 0.2857  plane waves:     715
 k-point ** :  -0.2857-0.2857 0.2857  plane waves:     718
 k-point ** :  -0.1429-0.2857 0.2857  plane waves:     721
 k-point ** :   0.0000-0.1429 0.2857  plane waves:     722
 k-point ** :   0.1429-0.1429 0.2857  plane waves:     722
 k-point ** :   0.2857-0.1429 0.2857  plane waves:     722
 k-point ** :   0.4286-0.1429 0.2857  plane waves:     721
 k-point ** :  -0.4286-0.1429 0.2857  plane waves:     715
 k-point ** :  -0.2857-0.1429 0.2857  plane waves:     721
 k-point ** :  -0.1429-0.1429 0.2857  plane waves:     714
 k-point ** :  -0.0000 0.0000 0.4286  plane waves:     724
[...]
      4     -47.5648     -47.8611     -47.8585     -47.9120       0.8458       2.0000
      5     -47.5588     -47.8597     -47.8602     -47.9133       0.8501       2.0000
      6     -19.7639     -19.9326     -19.9311     -19.9654       0.8299       2.0000
      7      -6.4400      -6.5484      -6.5509      -6.5688       0.8615       2.0000
      8      -5.5814      -5.6820      -5.6820      -5.6978       0.8643       2.0000
      9      -5.0359      -5.1315      -5.1317      -5.1465       0.8663       2.0000
     10       6.8571       6.9600       6.9594       6.9725       0.8865       0.0000
     11       7.2601       7.3653       7.3645       7.3780       0.8858       0.0000
     12       8.6623       8.7777       8.7768       8.7926       0.8792       0.0000
     13      10.2179      10.3397      10.3385      10.3556       0.8759       0.0000
     14      12.0073      12.1445      12.1437      12.1645       0.8673       0.0000
     15      13.1606      13.3046      13.3042      13.3269       0.8632       0.0000
     16      14.2270      14.3757      14.3752      14.3994       0.8597       0.0000
     17      15.7970      15.9600      15.9590      15.9874       0.8506       0.0000
     18      16.9740      17.1437      17.1419      17.1728       0.8446       0.0000
     19      17.2901      17.4548      17.4541      17.4836       0.8477       0.0000
     20      19.2025      19.3834      19.3825      19.4173       0.8379       0.0000
 

 k-point 164 :      -0.2857   -0.2857    0.4286
  band No. DFT-energies  QP-energies  QP-e(diag)   sigma(DFT)    Z            occupation

      1     -47.5866     -47.8706     -47.8669     -47.9183       0.8449       2.0000
      2     -47.5796     -47.8704     -47.8682     -47.9190       0.8504       2.0000
      3     -47.5658     -47.8624     -47.8584     -47.9122       0.8447       2.0000
      4     -47.5639     -47.8614     -47.8599     -47.9134       0.8470       2.0000
      5     -47.5622     -47.8599     -47.8610     -47.9138       0.8498       2.0000
      6     -19.7702     -19.9396     -19.9382     -19.9730       0.8285       2.0000
      7      -6.2954      -6.4005      -6.4030      -6.4201       0.8634       2.0000
      8      -5.7968      -5.8991      -5.8993      -5.9155       0.8638       2.0000
      9      -4.8857      -4.9798      -4.9798      -4.9942       0.8674       2.0000
     10       6.7983       6.9023       6.9017       6.9148       0.8876       0.0000
     11       7.6994       7.8065       7.8058       7.8199       0.8828       0.0000
     12       8.6249       8.7401       8.7391       8.7548       0.8793       0.0000
     13      10.0398      10.1588      10.1575      10.1739       0.8779       0.0000
     14      11.5969      11.7298      11.7283      11.7478       0.8713       0.0000
     15      12.2419      12.3812      12.3807      12.4020       0.8667       0.0000
     16      15.1020      15.2548      15.2542      15.2797       0.8565       0.0000
     17      15.1691      15.3213      15.3212      15.3469       0.8556       0.0000
     18      16.7846      16.9550      16.9525      16.9833       0.8447       0.0000
     19      19.0612      19.2398      19.2389      19.2729       0.8396       0.0000
     20      19.0980      19.2820      19.2811      19.3171       0.8358       0.0000
 

 k-point 165 :      -0.1429   -0.2857    0.4286
  band No. DFT-energies  QP-energies  QP-e(diag)   sigma(DFT)    Z            occupation

      1     -47.5874     -47.8705     -47.8669     -47.9180       0.8455       2.0000
      2     -47.5815     -47.8691     -47.8672     -47.9187       0.8473       2.0000
      3     -47.5704     -47.8618     -47.8598     -47.9138       0.8427       2.0000
      4     -47.5649     -47.8616     -47.8596     -47.9130       0.8467       2.0000
      5     -47.5590     -47.8602     -47.8604     -47.9136       0.8497       2.0000
      6     -19.7640     -19.9326     -19.9312     -19.9655       0.8295       2.0000
      7      -6.4407      -6.5492      -6.5507      -6.5684       0.8614       2.0000
      8      -5.5807      -5.6812      -5.6822      -5.6981       0.8644       2.0000
      9      -5.0358      -5.1315      -5.1317      -5.1465       0.8664       2.0000
     10       6.8571       6.9601       6.9594       6.9724       0.8865       0.0000
     11       7.2600       7.3652       7.3644       7.3779       0.8860       0.0000
     12       8.6623       8.7777       8.7768       8.7926       0.8792       0.0000
     13      10.2181      10.3398      10.3386      10.3557       0.8758       0.0000
     14      12.0072      12.1444      12.1436      12.1645       0.8673       0.0000
     15      13.1605      13.3045      13.3041      13.3268       0.8632       0.0000
     16      14.2272      14.3759      14.3754      14.3996       0.8597       0.0000
     17      15.7964      15.9594      15.9584      15.9868       0.8507       0.0000
     18      16.9740      17.1436      17.1419      17.1727       0.8446       0.0000
     19      17.2897      17.4543      17.4537      17.4831       0.8477       0.0000
     20      19.2027      19.3836      19.3827      19.4175       0.8378       0.0000
 

 k-point 166 :      -0.0000   -0.1429    0.4286
  band No. DFT-energies  QP-energies  QP-e(diag)   sigma(DFT)    Z            occupation

      1     -47.5884     -47.8700     -47.8660     -47.9175       0.8435       2.0000
      2     -47.5843     -47.8693     -47.8675     -47.9187       0.8469       2.0000
      3     -47.5689     -47.8619     -47.8612     -47.9148       0.8452       2.0000
      4     -47.5663     -47.8614     -47.8598     -47.9135       0.8455       2.0000
      5     -47.5624     -47.8604     -47.8600     -47.9134       0.8479       2.0000
      6     -19.7828     -19.9534     -19.9519     -19.9871       0.8276       2.0000
      7      -6.7073      -6.8192      -6.8202      -6.8387       0.8590       2.0000
      8      -5.1591      -5.2562      -5.2567      -5.2720       0.8648       2.0000
      9      -4.8447      -4.9381      -4.9391      -4.9535       0.8680       2.0000
     10       6.1114       6.2157       6.2151       6.2282       0.8885       0.0000
     11       7.7429       7.8475       7.8467       7.8601       0.8853       0.0000
     12       9.3093       9.4239       9.4225       9.4378       0.8805       0.0000
     13       9.6726       9.7940       9.7933       9.8106       0.8741       0.0000
     14      12.1568      12.2911      12.2907      12.3110       0.8679       0.0000
     15      12.9857      13.1298      13.1295      13.1523       0.8634       0.0000
     16      13.0890      13.2333      13.2325      13.2552       0.8635       0.0000
     17      15.5751      15.7352      15.7341      15.7615       0.8529       0.0000
     18      16.1880      16.3555      16.3548      16.3849       0.8470       0.0000
     19      16.9662      17.1303      17.1292      17.1584       0.8479       0.0000
     20      18.7975      18.9737      18.9733      19.0065       0.8408       0.0000
 

 k-point 167 :       0.1429   -0.1429    0.4286
  band No. DFT-energies  QP-energies  QP-e(diag)   sigma(DFT)    Z            occupation

      1     -47.5871     -47.8705     -47.8666     -47.9177       0.8454       2.0000
      2     -47.5816     -47.8694     -47.8667     -47.9182       0.8469       2.0000
      3     -47.5709     -47.8619     -47.8599     -47.9140       0.8424       2.0000
      4     -47.5665     -47.8614     -47.8608     -47.9145       0.8459       2.0000
      5     -47.5583     -47.8602     -47.8600     -47.9132       0.8502       2.0000
      6     -19.7635     -19.9328     -19.9313     -19.9657       0.8299       2.0000
      7      -6.4409      -6.5495      -6.5506      -6.5682       0.8614       2.0000
      8      -5.5815      -5.6819      -5.6822      -5.6980       0.8642       2.0000
      9      -5.0349      -5.1307      -5.1320      -5.1469       0.8668       2.0000
     10       6.8570       6.9600       6.9593       6.9724       0.8866       0.0000
     11       7.2602       7.3654       7.3646       7.3781       0.8859       0.0000
     12       8.6622       8.7777       8.7768       8.7925       0.8793       0.0000
     13      10.2178      10.3395      10.3383      10.3554       0.8759       0.0000
     14      12.0074      12.1445      12.1437      12.1646       0.8672       0.0000
     15      13.1605      13.3043      13.3039      13.3267       0.8631       0.0000
     16      14.2273      14.3761      14.3756      14.3999       0.8597       0.0000
     17      15.7967      15.9599      15.9589      15.9873       0.8507       0.0000
     18      16.9736      17.1431      17.1413      17.1722       0.8446       0.0000
     19      17.2900      17.4547      17.4540      17.4835       0.8478       0.0000
     20      19.2022      19.3831      19.3822      19.4170       0.8379       0.0000
 

 k-point 168 :       0.2857   -0.1429    0.4286
  band No. DFT-energies  QP-energies  QP-e(diag)   sigma(DFT)    Z            occupation

      1     -47.5850     -47.8702     -47.8677     -47.9184       0.8478       2.0000
      2     -47.5794     -47.8696     -47.8601     -47.9134       0.8405       2.0000
      3     -47.5778     -47.8616     -47.8679     -47.9188       0.8507       2.0000
      4     -47.5596     -47.8612     -47.8602     -47.9136       0.8490       2.0000
      5     -47.5580     -47.8603     -47.8592     -47.9124       0.8497       2.0000
      6     -19.7421     -19.9074     -19.9059     -19.9393       0.8309       2.0000
      7      -6.4299      -6.5383      -6.5391      -6.5567       0.8614       2.0000
      8      -5.5878      -5.6893      -5.6908      -5.7071       0.8635       2.0000
      9      -5.3160      -5.4154      -5.4159      -5.4316       0.8643       2.0000
     10       5.9829       6.0790       6.0783       6.0901       0.8899       0.0000
     11       7.1442       7.2502       7.2492       7.2627       0.8855       0.0000
     12       9.2717       9.3918       9.3911       9.4079       0.8764       0.0000
     13      11.0555      11.1859      11.1852      11.2046       0.8703       0.0000
     14      12.8162      12.9602      12.9598      12.9827       0.8626       0.0000
     15      13.8810      14.0311      14.0306      14.0550       0.8602       0.0000
     16      15.7420      15.9025      15.9014      15.9288       0.8532       0.0000
     17      16.0452      16.2089      16.2077      16.2365       0.8496       0.0000
     18      16.6279      16.7899      16.7894      16.8180       0.8496       0.0000
     19      17.3392      17.5081      17.5071      17.5379       0.8446       0.0000
     20      17.3428      17.5107      17.5104      17.5412       0.8448       0.0000
 

 k-point 169 :       0.4286   -0.1429    0.4286
  band No. DFT-energies  QP-energies  QP-e(diag)   sigma(DFT)    Z            occupation

      1     -47.5896     -47.8708     -47.8664     -47.9177       0.8436       2.0000
      2     -47.5821     -47.8683     -47.8599     -47.9132       0.8391       2.0000
      3     -47.5697     -47.8614     -47.8686     -47.9200       0.8534       2.0000
      4     -47.5600     -47.8613     -47.8590     -47.9127       0.8478       2.0000
      5     -47.5561     -47.8602     -47.8591     -47.9123       0.8508       2.0000
      6     -19.7293     -19.8967     -19.8953     -19.9288       0.8322       2.0000
      7      -6.5515      -6.6625      -6.6636      -6.6819       0.8596       2.0000
      8      -5.5755      -5.6763      -5.6777      -5.6937       0.8643       2.0000
      9      -5.2735      -5.3720      -5.3723      -5.3877       0.8655       2.0000
     10       5.4792       5.5736       5.5730       5.5844       0.8914       0.0000
     11       6.7363       6.8398       6.8388       6.8520       0.8864       0.0000
     12      10.6371      10.7692      10.7686      10.7886       0.8681       0.0000
     13      12.0398      12.1758      12.1749      12.1956       0.8670       0.0000
     14      12.0553      12.1933      12.1933      12.2147       0.8662       0.0000
     15      14.2377      14.3915      14.3906      14.4158       0.8583       0.0000
     16      15.9608      16.1259      16.1248      16.1538       0.8495       0.0000
     17      16.1669      16.3322      16.3310      16.3605       0.8476       0.0000
     18      16.6915      16.8460      16.8455      16.8719       0.8536       0.0000
     19      17.2971      17.4732      17.4718      17.5050       0.8401       0.0000
     20      17.7907      17.9594      17.9588      17.9897       0.8446       0.0000
 

 k-point 170 :      -0.4286   -0.1429    0.4286
  band No. DFT-energies  QP-energies  QP-e(diag)   sigma(DFT)    Z            occupation

      1     -47.5837     -47.8708     -47.8677     -47.9185       0.8485       2.0000
      2     -47.5798     -47.8698     -47.8601     -47.9131       0.8408       2.0000
      3     -47.5729     -47.8617     -47.8686     -47.9197       0.8526       2.0000
      4     -47.5585     -47.8613     -47.8595     -47.9127       0.8499       2.0000
      5     -47.5575     -47.8599     -47.8595     -47.9127       0.8503       2.0000
      6     -19.7409     -19.9074     -19.9059     -19.9394       0.8313       2.0000
      7      -6.4293      -6.5378      -6.5394      -6.5570       0.8616       2.0000
      8      -5.5883      -5.6899      -5.6901      -5.7062       0.8635       2.0000
      9      -5.3160      -5.4152      -5.4161      -5.4319       0.8642       2.0000
     10       5.9830       6.0790       6.0783       6.0901       0.8897       0.0000
     11       7.1442       7.2502       7.2492       7.2628       0.8856       0.0000
     12       9.2715       9.3917       9.3909       9.4077       0.8766       0.0000
     13      11.0558      11.1862      11.1855      11.2049       0.8702       0.0000
     14      12.8160      12.9601      12.9597      12.9826       0.8626       0.0000
     15      13.8810      14.0312      14.0307      14.0550       0.8603       0.0000
     16      15.7426      15.9030      15.9019      15.9293       0.8531       0.0000
     17      16.0452      16.2087      16.2076      16.2363       0.8496       0.0000
     18      16.6276      16.7895      16.7890      16.8176       0.8496       0.0000
     19      17.3392      17.5084      17.5073      17.5382       0.8447       0.0000
     20      17.3428      17.5107      17.5105      17.5413       0.8448       0.0000
 

 k-point 171 :      -0.2857   -0.1429    0.4286
  band No. DFT-energies  QP-energies  QP-e(diag)   sigma(DFT)    Z            occupation

      1     -47.5874     -47.8704     -47.8670     -47.9181       0.8455       2.0000
      2     -47.5815     -47.8692     -47.8671     -47.9186       0.8474       2.0000
      3     -47.5703     -47.8618     -47.8597     -47.9137       0.8427       2.0000
      4     -47.5651     -47.8616     -47.8596     -47.9130       0.8465       2.0000
      5     -47.5592     -47.8602     -47.8603     -47.9136       0.8496       2.0000
      6     -19.7643     -19.9326     -19.9312     -19.9655       0.8293       2.0000
      7      -6.4406      -6.5492      -6.5507      -6.5683       0.8615       2.0000
      8      -5.5809      -5.6813      -5.6821      -5.6980       0.8643       2.0000
      9      -5.0356      -5.1314      -5.1318      -5.1466       0.8665       2.0000
     10       6.8571       6.9600       6.9593       6.9724       0.8865       0.0000
     11       7.2600       7.3652       7.3645       7.3779       0.8859       0.0000
     12       8.6623       8.7777       8.7769       8.7926       0.8792       0.0000
     13      10.2181      10.3398      10.3386      10.3557       0.8758       0.0000
     14      12.0072      12.1444      12.1436      12.1645       0.8673       0.0000
     15      13.1606      13.3045      13.3040      13.3268       0.8632       0.0000
     16      14.2272      14.3758      14.3754      14.3995       0.8598       0.0000
     17      15.7964      15.9594      15.9584      15.9868       0.8507       0.0000
     18      16.9740      17.1436      17.1418      17.1727       0.8446       0.0000
     19      17.2897      17.4543      17.4537      17.4832       0.8477       0.0000
     20      19.2026      19.3835      19.3826      19.4174       0.8378       0.0000
 

 k-point 172 :      -0.1429   -0.1429    0.4286
  band No. DFT-energies  QP-energies  QP-e(diag)   sigma(DFT)    Z            occupation

      1     -47.5896     -47.8698     -47.8667     -47.9185       0.8426       2.0000
      2     -47.5836     -47.8692     -47.8668     -47.9178       0.8471       2.0000
      3     -47.5683     -47.8621     -47.8593     -47.9129       0.8446       2.0000
      4     -47.5660     -47.8612     -47.8589     -47.9128       0.8447       2.0000
      5     -47.5641     -47.8598     -47.8621     -47.9154       0.8481       2.0000
      6     -19.7830     -19.9533     -19.9518     -19.9871       0.8274       2.0000
      7      -6.7069      -6.8192      -6.8203      -6.8388       0.8595       2.0000
      8      -5.1584      -5.2554      -5.2568      -5.2722       0.8649       2.0000
      9      -4.8455      -4.9389      -4.9389      -4.9532       0.8678       2.0000
     10       6.1114       6.2156       6.2151       6.2281       0.8883       0.0000
     11       7.7429       7.8474       7.8466       7.8601       0.8852       0.0000
     12       9.3094       9.4241       9.4226       9.4380       0.8804       0.0000
     13       9.6726       9.7941       9.7933       9.8107       0.8739       0.0000
     14      12.1569      12.2912      12.2907      12.3111       0.8678       0.0000
     15      12.9859      13.1301      13.1298      13.1526       0.8633       0.0000
     16      13.0884      13.2326      13.2318      13.2545       0.8635       0.0000
     17      15.5759      15.7360      15.7349      15.7623       0.8528       0.0000
     18      16.1870      16.3545      16.3538      16.3839       0.8470       0.0000
     19      16.9664      17.1306      17.1295      17.1588       0.8478       0.0000
     20      18.7972      18.9733      18.9729      19.0062       0.8408       0.0000
 


--------------------------------------------------------------------------------------------------------



IMPORTANT INFORMATION: All symmetrisations will be switched off!
NOSYMM: (Re-)initialisation of all symmetry stuff for point group C_1.

   GW_DIAG:  cpu time    2.5389: real time    2.5449
    GWLOOP:  cpu time12961.2885: real time12961.3699
 writing wavefunctions
    --------------------------------------------
   GWTOTAL:  cpu time12962.9270: real time12963.2870
    4ORBIT:  cpu time    0.0000: real time    0.0000

 total amount of memory used by VASP MPI-rank0   307365. kBytes
=======================================================================

   base      :      30000. kBytes
   nonl-proj :      36973. kBytes
   fftplans  :      25720. kBytes
   grid      :       7727. kBytes
   one-center:         65. kBytes
   HF        :        547. kBytes
   nonlr-proj:        286. kBytes
   wavefun   :     206047. kBytes
   2eintegral:          0. kBytes
   fockhandle:          0. kBytes
   response  :          0. kBytes
   cacher    :          0. kBytes
 
  
  
 General timing and accounting informations for this job:
 ========================================================
  
                  Total CPU time used (sec):    12971.246
                            User time (sec):    12842.758
                          System time (sec):      128.488
                         Elapsed time (sec):    12971.593
  
                   Maximum memory used (kb):     3480528.
                   Average memory used (kb):           0.
  
                          Minor page faults:      1093226
                          Major page faults:            0
                 Voluntary context switches:        27497
