 vasp.5.4.4.18Apr17-6-g9f103f2a35 (build Nov 03 2018 10:20:46) complex          
  
 executed on             LinuxIFC date 2018.12.22  09:05:02
 running on   56 total cores
 distrk:  each k-point on    2 cores,   28 groups
 distr:  one band on NCORES_PER_BAND=   1 cores,    2 groups


--------------------------------------------------------------------------------------------------------


 INCAR:
 POTCAR:    PAW_PBE Rn_d_GW 14Apr2014             

 ----------------------------------------------------------------------------- 
|                                                                             |
|           W    W    AA    RRRRR   N    N  II  N    N   GGGG   !!!           |
|           W    W   A  A   R    R  NN   N  II  NN   N  G    G  !!!           |
|           W    W  A    A  R    R  N N  N  II  N N  N  G       !!!           |
|           W WW W  AAAAAA  RRRRR   N  N N  II  N  N N  G  GGG   !            |
|           WW  WW  A    A  R   R   N   NN  II  N   NN  G    G                |
|           W    W  A    A  R    R  N    N  II  N    N   GGGG   !!!           |
|                                                                             |
|      For optimal performance we recommend to set                            |
|        NCORE= 4 - approx SQRT( number of cores)                             |
|      NCORE specifies how many cores store one orbital (NPAR=cpu/NCORE).     |
|      This setting can  greatly improve the performance of VASP for DFT.     |
|      The default,   NCORE=1            might be grossly inefficient         |
|      on modern multi-core architectures or massively parallel machines.     |
|      Do your own testing !!!!                                               |
|      Unfortunately you need to use the default for GW and RPA calculations. |
|      (for HF NCORE is supported but not extensively tested yet)             |
|                                                                             |
 ----------------------------------------------------------------------------- 


 ----------------------------------------------------------------------------- 
|                                                                             |
|           W    W    AA    RRRRR   N    N  II  N    N   GGGG   !!!           |
|           W    W   A  A   R    R  NN   N  II  NN   N  G    G  !!!           |
|           W    W  A    A  R    R  N N  N  II  N N  N  G       !!!           |
|           W WW W  AAAAAA  RRRRR   N  N N  II  N  N N  G  GGG   !            |
|           WW  WW  A    A  R   R   N   NN  II  N   NN  G    G                |
|           W    W  A    A  R    R  N    N  II  N    N   GGGG   !!!           |
|                                                                             |
|      You have enabled k-point parallelism (KPAR>1).                         |
|      This developmental code was originally  written by Paul Kent at ORNL,  |
|      and carefully double checked in Vienna.                                |
|      GW as well as linear response parallelism added by Martijn Marsman     |
|      and Georg Kresse.                                                      |
|      Carefully verify results versus KPAR=1.                                |
|      Report problems to Paul Kent and Vienna.                               |
|                                                                             |
 ----------------------------------------------------------------------------- 

 POTCAR:    PAW_PBE Rn_d_GW 14Apr2014             
  local pseudopotential read in
  partial core-charges read in
  partial kinetic energy density read in
  kinetic energy density of atom read in
  atomic valenz-charges read in
  non local Contribution for L=           2  read in
    real space projection operators read in
  non local Contribution for L=           2  read in
    real space projection operators read in
  non local Contribution for L=           2  read in
    real space projection operators read in
  non local Contribution for L=           0  read in
    real space projection operators read in
  non local Contribution for L=           0  read in
    real space projection operators read in
  non local Contribution for L=           1  read in
    real space projection operators read in
  non local Contribution for L=           1  read in
    real space projection operators read in
  non local Contribution for L=           3  read in
    real space projection operators read in
  non local Contribution for L=           3  read in
    real space projection operators read in
    PAW grid and wavefunctions read in
 
   number of l-projection  operators is LMAX  =           9
   number of lm-projection operators is LMMAX =          37
 
  PAW_PBE Rn_d_GW 14Apr2014             :
 energy of atom  1       EATOM=-3030.7130
 kinetic energy error for atom=    0.0889 (will be added to EATOM!!)
 
 
 POSCAR: Rn_FCC                                  
  positions in direct lattice
  velocities in cartesian coordinates
 exchange correlation table for  LEXCH =        8
   RHO(1)=    0.500       N(1)  =     2000
   RHO(2)=  100.500       N(2)  =     4000
 


--------------------------------------------------------------------------------------------------------


 ion  position               nearest neighbor table
   1  0.000  0.000  0.000-
 

IMPORTANT INFORMATION: All symmetrisations will be switched off!
NOSYMM: (Re-)initialisation of all symmetry stuff for point group C_1.

 
 
 KPOINTS: k-points                                

Automatic generation of k-mesh.
Space group operators:
 irot       det(A)        alpha          n_x          n_y          n_z        tau_x        tau_y        tau_z
    1     1.000000     0.000000     1.000000     0.000000     0.000000     0.000000     0.000000     0.000000
 
 Subroutine IBZKPT returns following result:
 ===========================================
 
 Found    172 irreducible k-points:
 
 Following reciprocal coordinates:
            Coordinates               Weight
  0.000000  0.000000  0.000000      1.000000
  0.142857 -0.000000 -0.000000      2.000000
  0.285714  0.000000 -0.000000      2.000000
  0.428571  0.000000  0.000000      2.000000
  0.000000  0.142857  0.000000      2.000000
  0.142857  0.142857 -0.000000      2.000000
  0.285714  0.142857 -0.000000      2.000000
  0.428571  0.142857  0.000000      2.000000
 -0.428571  0.142857 -0.000000      2.000000
 -0.285714  0.142857  0.000000      2.000000
 -0.142857  0.142857 -0.000000      2.000000
  0.000000  0.285714  0.000000      2.000000
  0.142857  0.285714 -0.000000      2.000000
  0.285714  0.285714 -0.000000      2.000000
  0.428571  0.285714  0.000000      2.000000
 -0.428571  0.285714  0.000000      2.000000
 -0.285714  0.285714  0.000000      2.000000
 -0.142857  0.285714 -0.000000      2.000000
  0.000000  0.428571  0.000000      2.000000
  0.142857  0.428571  0.000000      2.000000
  0.285714  0.428571  0.000000      2.000000
  0.428571  0.428571  0.000000      2.000000
 -0.428571  0.428571 -0.000000      2.000000
 -0.285714  0.428571 -0.000000      2.000000
 -0.142857  0.428571  0.000000      2.000000
  0.000000  0.000000  0.142857      2.000000
  0.142857 -0.000000  0.142857      2.000000
  0.285714 -0.000000  0.142857      2.000000
  0.428571  0.000000  0.142857      2.000000
 -0.428571 -0.000000  0.142857      2.000000
 -0.285714 -0.000000  0.142857      2.000000
 -0.142857  0.000000  0.142857      2.000000
 -0.000000  0.142857  0.142857      2.000000
  0.142857  0.142857  0.142857      2.000000
  0.285714  0.142857  0.142857      2.000000
  0.428571  0.142857  0.142857      2.000000
 -0.428571  0.142857  0.142857      2.000000
 -0.285714  0.142857  0.142857      2.000000
 -0.142857  0.142857  0.142857      2.000000
 -0.000000  0.285714  0.142857      2.000000
  0.142857  0.285714  0.142857      2.000000
  0.285714  0.285714  0.142857      2.000000
  0.428571  0.285714  0.142857      2.000000
 -0.428571  0.285714  0.142857      2.000000
 -0.285714  0.285714  0.142857      2.000000
 -0.142857  0.285714  0.142857      2.000000
 -0.000000  0.428571  0.142857      2.000000
  0.142857  0.428571  0.142857      2.000000
  0.285714  0.428571  0.142857      2.000000
  0.428571  0.428571  0.142857      2.000000
 -0.428571  0.428571  0.142857      2.000000
 -0.285714  0.428571  0.142857      2.000000
 -0.142857  0.428571  0.142857      2.000000
  0.000000 -0.428571  0.142857      2.000000
  0.142857 -0.428571  0.142857      2.000000
  0.285714 -0.428571  0.142857      2.000000
  0.428571 -0.428571  0.142857      2.000000
 -0.428571 -0.428571  0.142857      2.000000
 -0.285714 -0.428571  0.142857      2.000000
 -0.142857 -0.428571  0.142857      2.000000
  0.000000 -0.285714  0.142857      2.000000
  0.142857 -0.285714  0.142857      2.000000
  0.285714 -0.285714  0.142857      2.000000
  0.428571 -0.285714  0.142857      2.000000
 -0.428571 -0.285714  0.142857      2.000000
 -0.285714 -0.285714  0.142857      2.000000
 -0.142857 -0.285714  0.142857      2.000000
 -0.000000 -0.142857  0.142857      2.000000
  0.142857 -0.142857  0.142857      2.000000
  0.285714 -0.142857  0.142857      2.000000
  0.428571 -0.142857  0.142857      2.000000
 -0.428571 -0.142857  0.142857      2.000000
 -0.285714 -0.142857  0.142857      2.000000
 -0.142857 -0.142857  0.142857      2.000000
  0.000000  0.000000  0.285714      2.000000
  0.142857  0.000000  0.285714      2.000000
  0.285714 -0.000000  0.285714      2.000000
  0.428571 -0.000000  0.285714      2.000000
 -0.428571 -0.000000  0.285714      2.000000
 -0.285714 -0.000000  0.285714      2.000000
 -0.142857  0.000000  0.285714      2.000000
 -0.000000  0.142857  0.285714      2.000000
  0.142857  0.142857  0.285714      2.000000
  0.285714  0.142857  0.285714      2.000000
  0.428571  0.142857  0.285714      2.000000
 -0.428571  0.142857  0.285714      2.000000
 -0.285714  0.142857  0.285714      2.000000
 -0.142857  0.142857  0.285714      2.000000
 -0.000000  0.285714  0.285714      2.000000
  0.142857  0.285714  0.285714      2.000000
  0.285714  0.285714  0.285714      2.000000
  0.428571  0.285714  0.285714      2.000000
 -0.428571  0.285714  0.285714      2.000000
 -0.285714  0.285714  0.285714      2.000000
 -0.142857  0.285714  0.285714      2.000000
 -0.000000  0.428571  0.285714      2.000000
  0.142857  0.428571  0.285714      2.000000
  0.285714  0.428571  0.285714      2.000000
  0.428571  0.428571  0.285714      2.000000
 -0.428571  0.428571  0.285714      2.000000
 -0.285714  0.428571  0.285714      2.000000
 -0.142857  0.428571  0.285714      2.000000
  0.000000 -0.428571  0.285714      2.000000
  0.142857 -0.428571  0.285714      2.000000
  0.285714 -0.428571  0.285714      2.000000
  0.428571 -0.428571  0.285714      2.000000
 -0.428571 -0.428571  0.285714      2.000000
 -0.285714 -0.428571  0.285714      2.000000
 -0.142857 -0.428571  0.285714      2.000000
 -0.000000 -0.285714  0.285714      2.000000
  0.142857 -0.285714  0.285714      2.000000
  0.285714 -0.285714  0.285714      2.000000
  0.428571 -0.285714  0.285714      2.000000
 -0.428571 -0.285714  0.285714      2.000000
 -0.285714 -0.285714  0.285714      2.000000
 -0.142857 -0.285714  0.285714      2.000000
  0.000000 -0.142857  0.285714      2.000000
  0.142857 -0.142857  0.285714      2.000000
  0.285714 -0.142857  0.285714      2.000000
  0.428571 -0.142857  0.285714      2.000000
 -0.428571 -0.142857  0.285714      2.000000
 -0.285714 -0.142857  0.285714      2.000000
 -0.142857 -0.142857  0.285714      2.000000
 -0.000000  0.000000  0.428571      2.000000
  0.142857 -0.000000  0.428571      2.000000
  0.285714  0.000000  0.428571      2.000000
  0.428571  0.000000  0.428571      2.000000
 -0.428571  0.000000  0.428571      2.000000
 -0.285714  0.000000  0.428571      2.000000
 -0.142857  0.000000  0.428571      2.000000
 -0.000000  0.142857  0.428571      2.000000
  0.142857  0.142857  0.428571      2.000000
  0.285714  0.142857  0.428571      2.000000
  0.428571  0.142857  0.428571      2.000000
 -0.428571  0.142857  0.428571      2.000000
 -0.285714  0.142857  0.428571      2.000000
 -0.142857  0.142857  0.428571      2.000000
 -0.000000  0.285714  0.428571      2.000000
  0.142857  0.285714  0.428571      2.000000
  0.285714  0.285714  0.428571      2.000000
  0.428571  0.285714  0.428571      2.000000
 -0.428571  0.285714  0.428571      2.000000
 -0.285714  0.285714  0.428571      2.000000
 -0.142857  0.285714  0.428571      2.000000
 -0.000000  0.428571  0.428571      2.000000
  0.142857  0.428571  0.428571      2.000000
  0.285714  0.428571  0.428571      2.000000
  0.428571  0.428571  0.428571      2.000000
 -0.428571  0.428571  0.428571      2.000000
 -0.285714  0.428571  0.428571      2.000000
 -0.142857  0.428571  0.428571      2.000000
 -0.000000 -0.428571  0.428571      2.000000
  0.142857 -0.428571  0.428571      2.000000
  0.285714 -0.428571  0.428571      2.000000
  0.428571 -0.428571  0.428571      2.000000
 -0.428571 -0.428571  0.428571      2.000000
 -0.285714 -0.428571  0.428571      2.000000
 -0.142857 -0.428571  0.428571      2.000000
 -0.000000 -0.285714  0.428571      2.000000
  0.142857 -0.285714  0.428571      2.000000
  0.285714 -0.285714  0.428571      2.000000
  0.428571 -0.285714  0.428571      2.000000
 -0.428571 -0.285714  0.428571      2.000000
 -0.285714 -0.285714  0.428571      2.000000
 -0.142857 -0.285714  0.428571      2.000000
 -0.000000 -0.142857  0.428571      2.000000
  0.142857 -0.142857  0.428571      2.000000
  0.285714 -0.142857  0.428571      2.000000
  0.428571 -0.142857  0.428571      2.000000
 -0.428571 -0.142857  0.428571      2.000000
 -0.285714 -0.142857  0.428571      2.000000
 -0.142857 -0.142857  0.428571      2.000000
 
 Following cartesian coordinates:
            Coordinates               Weight
  0.000000  0.000000  0.000000      1.000000
  0.031602 -0.018245 -0.012901      2.000000
  0.063203 -0.036490 -0.025803      2.000000
  0.094805 -0.054736 -0.038704      2.000000
  0.000000  0.036490 -0.012901      2.000000
  0.031602  0.018245 -0.025803      2.000000
  0.063203  0.000000 -0.038704      2.000000
  0.094805 -0.018245 -0.051605      2.000000
 -0.094805  0.091226  0.025803      2.000000
 -0.063203  0.072981  0.012901      2.000000
 -0.031602  0.054736  0.000000      2.000000
  0.000000  0.072981 -0.025803      2.000000
  0.031602  0.054736 -0.038704      2.000000
  0.063203  0.036490 -0.051605      2.000000
  0.094805  0.018245 -0.064507      2.000000
 -0.094805  0.127716  0.012901      2.000000
 -0.063203  0.109471  0.000000      2.000000
 -0.031602  0.091226 -0.012901      2.000000
  0.000000  0.109471 -0.038704      2.000000
  0.031602  0.091226 -0.051605      2.000000
  0.063203  0.072981 -0.064507      2.000000
  0.094805  0.054736 -0.077408      2.000000
 -0.094805  0.164207  0.000000      2.000000
 -0.063203  0.145962 -0.012901      2.000000
 -0.031602  0.127716 -0.025803      2.000000
 -0.000000  0.000000  0.038704      2.000000
  0.031602 -0.018245  0.025803      2.000000
  0.063203 -0.036490  0.012901      2.000000
  0.094805 -0.054736 -0.000000      2.000000
 -0.094805  0.054736  0.077408      2.000000
 -0.063203  0.036490  0.064507      2.000000
 -0.031602  0.018245  0.051605      2.000000
 -0.000000  0.036490  0.025803      2.000000
  0.031602  0.018245  0.012901      2.000000
  0.063203  0.000000  0.000000      2.000000
  0.094805 -0.018245 -0.012901      2.000000
 -0.094805  0.091226  0.064507      2.000000
 -0.063203  0.072981  0.051605      2.000000
 -0.031602  0.054736  0.038704      2.000000
 -0.000000  0.072981  0.012901      2.000000
  0.031602  0.054736  0.000000      2.000000
  0.063203  0.036490 -0.012901      2.000000
  0.094805  0.018245 -0.025803      2.000000
 -0.094805  0.127716  0.051605      2.000000
 -0.063203  0.109471  0.038704      2.000000
 -0.031602  0.091226  0.025803      2.000000
 -0.000000  0.109471  0.000000      2.000000
  0.031602  0.091226 -0.012901      2.000000
  0.063203  0.072981 -0.025803      2.000000
  0.094805  0.054736 -0.038704      2.000000
 -0.094805  0.164207  0.038704      2.000000
 -0.063203  0.145962  0.025803      2.000000
 -0.031602  0.127716  0.012901      2.000000
 -0.000000 -0.109471  0.077408      2.000000
  0.031602 -0.127716  0.064507      2.000000
  0.063203 -0.145962  0.051605      2.000000
  0.094805 -0.164207  0.038704      2.000000
 -0.094805 -0.054736  0.116112      2.000000
 -0.063203 -0.072981  0.103210      2.000000
 -0.031602 -0.091226  0.090309      2.000000
 -0.000000 -0.072981  0.064507      2.000000
  0.031602 -0.091226  0.051605      2.000000
  0.063203 -0.109471  0.038704      2.000000
  0.094805 -0.127716  0.025803      2.000000
 -0.094805 -0.018245  0.103210      2.000000
 -0.063203 -0.036490  0.090309      2.000000
 -0.031602 -0.054736  0.077408      2.000000
 -0.000000 -0.036490  0.051605      2.000000
  0.031602 -0.054736  0.038704      2.000000
  0.063203 -0.072981  0.025803      2.000000
  0.094805 -0.091226  0.012901      2.000000
 -0.094805  0.018245  0.090309      2.000000
 -0.063203 -0.000000  0.077408      2.000000
 -0.031602 -0.018245  0.064507      2.000000
 -0.000000  0.000000  0.077408      2.000000
  0.031602 -0.018245  0.064507      2.000000
  0.063203 -0.036490  0.051605      2.000000
  0.094805 -0.054736  0.038704      2.000000
 -0.094805  0.054736  0.116112      2.000000
 -0.063203  0.036490  0.103210      2.000000
 -0.031602  0.018245  0.090309      2.000000
 -0.000000  0.036490  0.064507      2.000000
  0.031602  0.018245  0.051605      2.000000
  0.063203  0.000000  0.038704      2.000000
  0.094805 -0.018245  0.025803      2.000000
 -0.094805  0.091226  0.103210      2.000000
 -0.063203  0.072981  0.090309      2.000000
 -0.031602  0.054736  0.077408      2.000000
 -0.000000  0.072981  0.051605      2.000000
  0.031602  0.054736  0.038704      2.000000
  0.063203  0.036490  0.025803      2.000000
  0.094805  0.018245  0.012901      2.000000
 -0.094805  0.127716  0.090309      2.000000
 -0.063203  0.109471  0.077408      2.000000
 -0.031602  0.091226  0.064507      2.000000
 -0.000000  0.109471  0.038704      2.000000
  0.031602  0.091226  0.025803      2.000000
  0.063203  0.072981  0.012901      2.000000
  0.094805  0.054736  0.000000      2.000000
 -0.094805  0.164207  0.077408      2.000000
 -0.063203  0.145962  0.064507      2.000000
 -0.031602  0.127716  0.051605      2.000000
 -0.000000 -0.109471  0.116112      2.000000
  0.031602 -0.127716  0.103210      2.000000
  0.063203 -0.145962  0.090309      2.000000
  0.094805 -0.164207  0.077408      2.000000
 -0.094805 -0.054736  0.154816      2.000000
 -0.063203 -0.072981  0.141914      2.000000
 -0.031602 -0.091226  0.129013      2.000000
 -0.000000 -0.072981  0.103210      2.000000
  0.031602 -0.091226  0.090309      2.000000
  0.063203 -0.109471  0.077408      2.000000
  0.094805 -0.127716  0.064507      2.000000
 -0.094805 -0.018245  0.141914      2.000000
 -0.063203 -0.036490  0.129013      2.000000
 -0.031602 -0.054736  0.116112      2.000000
 -0.000000 -0.036490  0.090309      2.000000
  0.031602 -0.054736  0.077408      2.000000
  0.063203 -0.072981  0.064507      2.000000
  0.094805 -0.091226  0.051605      2.000000
 -0.094805  0.018245  0.129013      2.000000
 -0.063203 -0.000000  0.116112      2.000000
 -0.031602 -0.018245  0.103210      2.000000
 -0.000000  0.000000  0.116112      2.000000
  0.031602 -0.018245  0.103210      2.000000
  0.063203 -0.036490  0.090309      2.000000
  0.094805 -0.054736  0.077408      2.000000
 -0.094805  0.054736  0.154816      2.000000
 -0.063203  0.036490  0.141914      2.000000
 -0.031602  0.018245  0.129013      2.000000
 -0.000000  0.036490  0.103210      2.000000
  0.031602  0.018245  0.090309      2.000000
  0.063203  0.000000  0.077408      2.000000
  0.094805 -0.018245  0.064507      2.000000
 -0.094805  0.091226  0.141914      2.000000
 -0.063203  0.072981  0.129013      2.000000
 -0.031602  0.054736  0.116112      2.000000
 -0.000000  0.072981  0.090309      2.000000
  0.031602  0.054736  0.077408      2.000000
  0.063203  0.036490  0.064507      2.000000
  0.094805  0.018245  0.051605      2.000000
 -0.094805  0.127716  0.129013      2.000000
 -0.063203  0.109471  0.116112      2.000000
 -0.031602  0.091226  0.103210      2.000000
 -0.000000  0.109471  0.077408      2.000000
  0.031602  0.091226  0.064507      2.000000
  0.063203  0.072981  0.051605      2.000000
  0.094805  0.054736  0.038704      2.000000
 -0.094805  0.164207  0.116112      2.000000
 -0.063203  0.145962  0.103210      2.000000
 -0.031602  0.127716  0.090309      2.000000
 -0.000000 -0.109471  0.154816      2.000000
  0.031602 -0.127716  0.141914      2.000000
  0.063203 -0.145962  0.129013      2.000000
  0.094805 -0.164207  0.116112      2.000000
 -0.094805 -0.054736  0.193520      2.000000
 -0.063203 -0.072981  0.180618      2.000000
 -0.031602 -0.091226  0.167717      2.000000
 -0.000000 -0.072981  0.141914      2.000000
  0.031602 -0.091226  0.129013      2.000000
  0.063203 -0.109471  0.116112      2.000000
  0.094805 -0.127716  0.103210      2.000000
 -0.094805 -0.018245  0.180618      2.000000
 -0.063203 -0.036490  0.167717      2.000000
 -0.031602 -0.054736  0.154816      2.000000
 -0.000000 -0.036490  0.129013      2.000000
  0.031602 -0.054736  0.116112      2.000000
  0.063203 -0.072981  0.103210      2.000000
  0.094805 -0.091226  0.090309      2.000000
 -0.094805  0.018245  0.167717      2.000000
 -0.063203 -0.000000  0.154816      2.000000
 -0.031602 -0.018245  0.141914      2.000000
 
 
 Subroutine IBZKPT_HF returns following result:
 ==============================================
 
 Found    343 k-points in 1st BZ
 the following    343 k-points will be used (e.g. in the exchange kernel)
 Following reciprocal coordinates:   # in IRBZ
  0.000000  0.000000  0.000000    0.00291545   1 t-inv F
  0.142857 -0.000000 -0.000000    0.00291545   2 t-inv F
  0.285714  0.000000 -0.000000    0.00291545   3 t-inv F
  0.428571  0.000000  0.000000    0.00291545   4 t-inv F
  0.000000  0.142857  0.000000    0.00291545   5 t-inv F
  0.142857  0.142857 -0.000000    0.00291545   6 t-inv F
  0.285714  0.142857 -0.000000    0.00291545   7 t-inv F
  0.428571  0.142857  0.000000    0.00291545   8 t-inv F
 -0.428571  0.142857 -0.000000    0.00291545   9 t-inv F
 -0.285714  0.142857  0.000000    0.00291545  10 t-inv F
 -0.142857  0.142857 -0.000000    0.00291545  11 t-inv F
  0.000000  0.285714  0.000000    0.00291545  12 t-inv F
  0.142857  0.285714 -0.000000    0.00291545  13 t-inv F
  0.285714  0.285714 -0.000000    0.00291545  14 t-inv F
  0.428571  0.285714  0.000000    0.00291545  15 t-inv F
 -0.428571  0.285714  0.000000    0.00291545  16 t-inv F
 -0.285714  0.285714  0.000000    0.00291545  17 t-inv F
 -0.142857  0.285714 -0.000000    0.00291545  18 t-inv F
  0.000000  0.428571  0.000000    0.00291545  19 t-inv F
  0.142857  0.428571  0.000000    0.00291545  20 t-inv F
  0.285714  0.428571  0.000000    0.00291545  21 t-inv F
  0.428571  0.428571  0.000000    0.00291545  22 t-inv F
 -0.428571  0.428571 -0.000000    0.00291545  23 t-inv F
 -0.285714  0.428571 -0.000000    0.00291545  24 t-inv F
 -0.142857  0.428571  0.000000    0.00291545  25 t-inv F
  0.000000  0.000000  0.142857    0.00291545  26 t-inv F
  0.142857 -0.000000  0.142857    0.00291545  27 t-inv F
  0.285714 -0.000000  0.142857    0.00291545  28 t-inv F
  0.428571  0.000000  0.142857    0.00291545  29 t-inv F
 -0.428571 -0.000000  0.142857    0.00291545  30 t-inv F
 -0.285714 -0.000000  0.142857    0.00291545  31 t-inv F
 -0.142857  0.000000  0.142857    0.00291545  32 t-inv F
 -0.000000  0.142857  0.142857    0.00291545  33 t-inv F
  0.142857  0.142857  0.142857    0.00291545  34 t-inv F
  0.285714  0.142857  0.142857    0.00291545  35 t-inv F
  0.428571  0.142857  0.142857    0.00291545  36 t-inv F
 -0.428571  0.142857  0.142857    0.00291545  37 t-inv F
 -0.285714  0.142857  0.142857    0.00291545  38 t-inv F
 -0.142857  0.142857  0.142857    0.00291545  39 t-inv F
 -0.000000  0.285714  0.142857    0.00291545  40 t-inv F
  0.142857  0.285714  0.142857    0.00291545  41 t-inv F
  0.285714  0.285714  0.142857    0.00291545  42 t-inv F
  0.428571  0.285714  0.142857    0.00291545  43 t-inv F
 -0.428571  0.285714  0.142857    0.00291545  44 t-inv F
 -0.285714  0.285714  0.142857    0.00291545  45 t-inv F
 -0.142857  0.285714  0.142857    0.00291545  46 t-inv F
 -0.000000  0.428571  0.142857    0.00291545  47 t-inv F
  0.142857  0.428571  0.142857    0.00291545  48 t-inv F
  0.285714  0.428571  0.142857    0.00291545  49 t-inv F
  0.428571  0.428571  0.142857    0.00291545  50 t-inv F
 -0.428571  0.428571  0.142857    0.00291545  51 t-inv F
 -0.285714  0.428571  0.142857    0.00291545  52 t-inv F
 -0.142857  0.428571  0.142857    0.00291545  53 t-inv F
  0.000000 -0.428571  0.142857    0.00291545  54 t-inv F
  0.142857 -0.428571  0.142857    0.00291545  55 t-inv F
  0.285714 -0.428571  0.142857    0.00291545  56 t-inv F
  0.428571 -0.428571  0.142857    0.00291545  57 t-inv F
 -0.428571 -0.428571  0.142857    0.00291545  58 t-inv F
 -0.285714 -0.428571  0.142857    0.00291545  59 t-inv F
 -0.142857 -0.428571  0.142857    0.00291545  60 t-inv F
  0.000000 -0.285714  0.142857    0.00291545  61 t-inv F
  0.142857 -0.285714  0.142857    0.00291545  62 t-inv F
  0.285714 -0.285714  0.142857    0.00291545  63 t-inv F
  0.428571 -0.285714  0.142857    0.00291545  64 t-inv F
 -0.428571 -0.285714  0.142857    0.00291545  65 t-inv F
 -0.285714 -0.285714  0.142857    0.00291545  66 t-inv F
 -0.142857 -0.285714  0.142857    0.00291545  67 t-inv F
 -0.000000 -0.142857  0.142857    0.00291545  68 t-inv F
  0.142857 -0.142857  0.142857    0.00291545  69 t-inv F
  0.285714 -0.142857  0.142857    0.00291545  70 t-inv F
  0.428571 -0.142857  0.142857    0.00291545  71 t-inv F
 -0.428571 -0.142857  0.142857    0.00291545  72 t-inv F
 -0.285714 -0.142857  0.142857    0.00291545  73 t-inv F
 -0.142857 -0.142857  0.142857    0.00291545  74 t-inv F
  0.000000  0.000000  0.285714    0.00291545  75 t-inv F
  0.142857  0.000000  0.285714    0.00291545  76 t-inv F
  0.285714 -0.000000  0.285714    0.00291545  77 t-inv F
  0.428571 -0.000000  0.285714    0.00291545  78 t-inv F
 -0.428571 -0.000000  0.285714    0.00291545  79 t-inv F
 -0.285714 -0.000000  0.285714    0.00291545  80 t-inv F
 -0.142857  0.000000  0.285714    0.00291545  81 t-inv F
 -0.000000  0.142857  0.285714    0.00291545  82 t-inv F
  0.142857  0.142857  0.285714    0.00291545  83 t-inv F
  0.285714  0.142857  0.285714    0.00291545  84 t-inv F
  0.428571  0.142857  0.285714    0.00291545  85 t-inv F
 -0.428571  0.142857  0.285714    0.00291545  86 t-inv F
 -0.285714  0.142857  0.285714    0.00291545  87 t-inv F
 -0.142857  0.142857  0.285714    0.00291545  88 t-inv F
 -0.000000  0.285714  0.285714    0.00291545  89 t-inv F
  0.142857  0.285714  0.285714    0.00291545  90 t-inv F
  0.285714  0.285714  0.285714    0.00291545  91 t-inv F
  0.428571  0.285714  0.285714    0.00291545  92 t-inv F
 -0.428571  0.285714  0.285714    0.00291545  93 t-inv F
 -0.285714  0.285714  0.285714    0.00291545  94 t-inv F
 -0.142857  0.285714  0.285714    0.00291545  95 t-inv F
 -0.000000  0.428571  0.285714    0.00291545  96 t-inv F
  0.142857  0.428571  0.285714    0.00291545  97 t-inv F
  0.285714  0.428571  0.285714    0.00291545  98 t-inv F
  0.428571  0.428571  0.285714    0.00291545  99 t-inv F
 -0.428571  0.428571  0.285714    0.00291545 100 t-inv F
 -0.285714  0.428571  0.285714    0.00291545 101 t-inv F
 -0.142857  0.428571  0.285714    0.00291545 102 t-inv F
  0.000000 -0.428571  0.285714    0.00291545 103 t-inv F
  0.142857 -0.428571  0.285714    0.00291545 104 t-inv F
  0.285714 -0.428571  0.285714    0.00291545 105 t-inv F
  0.428571 -0.428571  0.285714    0.00291545 106 t-inv F
 -0.428571 -0.428571  0.285714    0.00291545 107 t-inv F
 -0.285714 -0.428571  0.285714    0.00291545 108 t-inv F
 -0.142857 -0.428571  0.285714    0.00291545 109 t-inv F
 -0.000000 -0.285714  0.285714    0.00291545 110 t-inv F
  0.142857 -0.285714  0.285714    0.00291545 111 t-inv F
  0.285714 -0.285714  0.285714    0.00291545 112 t-inv F
  0.428571 -0.285714  0.285714    0.00291545 113 t-inv F
 -0.428571 -0.285714  0.285714    0.00291545 114 t-inv F
 -0.285714 -0.285714  0.285714    0.00291545 115 t-inv F
 -0.142857 -0.285714  0.285714    0.00291545 116 t-inv F
  0.000000 -0.142857  0.285714    0.00291545 117 t-inv F
  0.142857 -0.142857  0.285714    0.00291545 118 t-inv F
  0.285714 -0.142857  0.285714    0.00291545 119 t-inv F
  0.428571 -0.142857  0.285714    0.00291545 120 t-inv F
 -0.428571 -0.142857  0.285714    0.00291545 121 t-inv F
 -0.285714 -0.142857  0.285714    0.00291545 122 t-inv F
 -0.142857 -0.142857  0.285714    0.00291545 123 t-inv F
 -0.000000  0.000000  0.428571    0.00291545 124 t-inv F
  0.142857 -0.000000  0.428571    0.00291545 125 t-inv F
  0.285714  0.000000  0.428571    0.00291545 126 t-inv F
  0.428571  0.000000  0.428571    0.00291545 127 t-inv F
 -0.428571  0.000000  0.428571    0.00291545 128 t-inv F
 -0.285714  0.000000  0.428571    0.00291545 129 t-inv F
 -0.142857  0.000000  0.428571    0.00291545 130 t-inv F
 -0.000000  0.142857  0.428571    0.00291545 131 t-inv F
  0.142857  0.142857  0.428571    0.00291545 132 t-inv F
  0.285714  0.142857  0.428571    0.00291545 133 t-inv F
  0.428571  0.142857  0.428571    0.00291545 134 t-inv F
 -0.428571  0.142857  0.428571    0.00291545 135 t-inv F
 -0.285714  0.142857  0.428571    0.00291545 136 t-inv F
 -0.142857  0.142857  0.428571    0.00291545 137 t-inv F
 -0.000000  0.285714  0.428571    0.00291545 138 t-inv F
  0.142857  0.285714  0.428571    0.00291545 139 t-inv F
  0.285714  0.285714  0.428571    0.00291545 140 t-inv F
  0.428571  0.285714  0.428571    0.00291545 141 t-inv F
 -0.428571  0.285714  0.428571    0.00291545 142 t-inv F
 -0.285714  0.285714  0.428571    0.00291545 143 t-inv F
 -0.142857  0.285714  0.428571    0.00291545 144 t-inv F
 -0.000000  0.428571  0.428571    0.00291545 145 t-inv F
  0.142857  0.428571  0.428571    0.00291545 146 t-inv F
  0.285714  0.428571  0.428571    0.00291545 147 t-inv F
  0.428571  0.428571  0.428571    0.00291545 148 t-inv F
 -0.428571  0.428571  0.428571    0.00291545 149 t-inv F
 -0.285714  0.428571  0.428571    0.00291545 150 t-inv F
 -0.142857  0.428571  0.428571    0.00291545 151 t-inv F
 -0.000000 -0.428571  0.428571    0.00291545 152 t-inv F
  0.142857 -0.428571  0.428571    0.00291545 153 t-inv F
  0.285714 -0.428571  0.428571    0.00291545 154 t-inv F
  0.428571 -0.428571  0.428571    0.00291545 155 t-inv F
 -0.428571 -0.428571  0.428571    0.00291545 156 t-inv F
 -0.285714 -0.428571  0.428571    0.00291545 157 t-inv F
 -0.142857 -0.428571  0.428571    0.00291545 158 t-inv F
 -0.000000 -0.285714  0.428571    0.00291545 159 t-inv F
  0.142857 -0.285714  0.428571    0.00291545 160 t-inv F
  0.285714 -0.285714  0.428571    0.00291545 161 t-inv F
  0.428571 -0.285714  0.428571    0.00291545 162 t-inv F
 -0.428571 -0.285714  0.428571    0.00291545 163 t-inv F
 -0.285714 -0.285714  0.428571    0.00291545 164 t-inv F
 -0.142857 -0.285714  0.428571    0.00291545 165 t-inv F
 -0.000000 -0.142857  0.428571    0.00291545 166 t-inv F
  0.142857 -0.142857  0.428571    0.00291545 167 t-inv F
  0.285714 -0.142857  0.428571    0.00291545 168 t-inv F
  0.428571 -0.142857  0.428571    0.00291545 169 t-inv F
 -0.428571 -0.142857  0.428571    0.00291545 170 t-inv F
 -0.285714 -0.142857  0.428571    0.00291545 171 t-inv F
 -0.142857 -0.142857  0.428571    0.00291545 172 t-inv F
 -0.142857  0.000000  0.000000    0.00291545   2 t-inv T
 -0.285714 -0.000000  0.000000    0.00291545   3 t-inv T
 -0.428571 -0.000000 -0.000000    0.00291545   4 t-inv T
  0.000000 -0.142857 -0.000000    0.00291545   5 t-inv T
 -0.142857 -0.142857  0.000000    0.00291545   6 t-inv T
 -0.285714 -0.142857  0.000000    0.00291545   7 t-inv T
 -0.428571 -0.142857  0.000000    0.00291545   8 t-inv T
  0.428571 -0.142857  0.000000    0.00291545   9 t-inv T
  0.285714 -0.142857 -0.000000    0.00291545  10 t-inv T
  0.142857 -0.142857  0.000000    0.00291545  11 t-inv T
  0.000000 -0.285714 -0.000000    0.00291545  12 t-inv T
 -0.142857 -0.285714  0.000000    0.00291545  13 t-inv T
 -0.285714 -0.285714  0.000000    0.00291545  14 t-inv T
 -0.428571 -0.285714  0.000000    0.00291545  15 t-inv T
  0.428571 -0.285714  0.000000    0.00291545  16 t-inv T
  0.285714 -0.285714 -0.000000    0.00291545  17 t-inv T
  0.142857 -0.285714  0.000000    0.00291545  18 t-inv T
  0.000000 -0.428571  0.000000    0.00291545  19 t-inv T
 -0.142857 -0.428571  0.000000    0.00291545  20 t-inv T
 -0.285714 -0.428571  0.000000    0.00291545  21 t-inv T
 -0.428571 -0.428571  0.000000    0.00291545  22 t-inv T
  0.428571 -0.428571  0.000000    0.00291545  23 t-inv T
  0.285714 -0.428571  0.000000    0.00291545  24 t-inv T
  0.142857 -0.428571 -0.000000    0.00291545  25 t-inv T
  0.000000  0.000000 -0.142857    0.00291545  26 t-inv T
 -0.142857  0.000000 -0.142857    0.00291545  27 t-inv T
 -0.285714  0.000000 -0.142857    0.00291545  28 t-inv T
 -0.428571 -0.000000 -0.142857    0.00291545  29 t-inv T
  0.428571  0.000000 -0.142857    0.00291545  30 t-inv T
  0.285714  0.000000 -0.142857    0.00291545  31 t-inv T
  0.142857 -0.000000 -0.142857    0.00291545  32 t-inv T
  0.000000 -0.142857 -0.142857    0.00291545  33 t-inv T
 -0.142857 -0.142857 -0.142857    0.00291545  34 t-inv T
 -0.285714 -0.142857 -0.142857    0.00291545  35 t-inv T
 -0.428571 -0.142857 -0.142857    0.00291545  36 t-inv T
  0.428571 -0.142857 -0.142857    0.00291545  37 t-inv T
  0.285714 -0.142857 -0.142857    0.00291545  38 t-inv T
  0.142857 -0.142857 -0.142857    0.00291545  39 t-inv T
  0.000000 -0.285714 -0.142857    0.00291545  40 t-inv T
 -0.142857 -0.285714 -0.142857    0.00291545  41 t-inv T
 -0.285714 -0.285714 -0.142857    0.00291545  42 t-inv T
 -0.428571 -0.285714 -0.142857    0.00291545  43 t-inv T
  0.428571 -0.285714 -0.142857    0.00291545  44 t-inv T
  0.285714 -0.285714 -0.142857    0.00291545  45 t-inv T
  0.142857 -0.285714 -0.142857    0.00291545  46 t-inv T
  0.000000 -0.428571 -0.142857    0.00291545  47 t-inv T
 -0.142857 -0.428571 -0.142857    0.00291545  48 t-inv T
 -0.285714 -0.428571 -0.142857    0.00291545  49 t-inv T
 -0.428571 -0.428571 -0.142857    0.00291545  50 t-inv T
  0.428571 -0.428571 -0.142857    0.00291545  51 t-inv T
  0.285714 -0.428571 -0.142857    0.00291545  52 t-inv T
  0.142857 -0.428571 -0.142857    0.00291545  53 t-inv T
  0.000000  0.428571 -0.142857    0.00291545  54 t-inv T
 -0.142857  0.428571 -0.142857    0.00291545  55 t-inv T
 -0.285714  0.428571 -0.142857    0.00291545  56 t-inv T
 -0.428571  0.428571 -0.142857    0.00291545  57 t-inv T
  0.428571  0.428571 -0.142857    0.00291545  58 t-inv T
  0.285714  0.428571 -0.142857    0.00291545  59 t-inv T
  0.142857  0.428571 -0.142857    0.00291545  60 t-inv T
 -0.000000  0.285714 -0.142857    0.00291545  61 t-inv T
 -0.142857  0.285714 -0.142857    0.00291545  62 t-inv T
 -0.285714  0.285714 -0.142857    0.00291545  63 t-inv T
 -0.428571  0.285714 -0.142857    0.00291545  64 t-inv T
  0.428571  0.285714 -0.142857    0.00291545  65 t-inv T
  0.285714  0.285714 -0.142857    0.00291545  66 t-inv T
  0.142857  0.285714 -0.142857    0.00291545  67 t-inv T
  0.000000  0.142857 -0.142857    0.00291545  68 t-inv T
 -0.142857  0.142857 -0.142857    0.00291545  69 t-inv T
 -0.285714  0.142857 -0.142857    0.00291545  70 t-inv T
 -0.428571  0.142857 -0.142857    0.00291545  71 t-inv T
  0.428571  0.142857 -0.142857    0.00291545  72 t-inv T
  0.285714  0.142857 -0.142857    0.00291545  73 t-inv T
  0.142857  0.142857 -0.142857    0.00291545  74 t-inv T
  0.000000 -0.000000 -0.285714    0.00291545  75 t-inv T
 -0.142857 -0.000000 -0.285714    0.00291545  76 t-inv T
 -0.285714  0.000000 -0.285714    0.00291545  77 t-inv T
 -0.428571  0.000000 -0.285714    0.00291545  78 t-inv T
  0.428571  0.000000 -0.285714    0.00291545  79 t-inv T
  0.285714  0.000000 -0.285714    0.00291545  80 t-inv T
  0.142857 -0.000000 -0.285714    0.00291545  81 t-inv T
  0.000000 -0.142857 -0.285714    0.00291545  82 t-inv T
 -0.142857 -0.142857 -0.285714    0.00291545  83 t-inv T
 -0.285714 -0.142857 -0.285714    0.00291545  84 t-inv T
 -0.428571 -0.142857 -0.285714    0.00291545  85 t-inv T
  0.428571 -0.142857 -0.285714    0.00291545  86 t-inv T
  0.285714 -0.142857 -0.285714    0.00291545  87 t-inv T
  0.142857 -0.142857 -0.285714    0.00291545  88 t-inv T
  0.000000 -0.285714 -0.285714    0.00291545  89 t-inv T
 -0.142857 -0.285714 -0.285714    0.00291545  90 t-inv T
 -0.285714 -0.285714 -0.285714    0.00291545  91 t-inv T
 -0.428571 -0.285714 -0.285714    0.00291545  92 t-inv T
  0.428571 -0.285714 -0.285714    0.00291545  93 t-inv T
  0.285714 -0.285714 -0.285714    0.00291545  94 t-inv T
  0.142857 -0.285714 -0.285714    0.00291545  95 t-inv T
  0.000000 -0.428571 -0.285714    0.00291545  96 t-inv T
 -0.142857 -0.428571 -0.285714    0.00291545  97 t-inv T
 -0.285714 -0.428571 -0.285714    0.00291545  98 t-inv T
 -0.428571 -0.428571 -0.285714    0.00291545  99 t-inv T
  0.428571 -0.428571 -0.285714    0.00291545 100 t-inv T
  0.285714 -0.428571 -0.285714    0.00291545 101 t-inv T
  0.142857 -0.428571 -0.285714    0.00291545 102 t-inv T
 -0.000000  0.428571 -0.285714    0.00291545 103 t-inv T
 -0.142857  0.428571 -0.285714    0.00291545 104 t-inv T
 -0.285714  0.428571 -0.285714    0.00291545 105 t-inv T
 -0.428571  0.428571 -0.285714    0.00291545 106 t-inv T
  0.428571  0.428571 -0.285714    0.00291545 107 t-inv T
  0.285714  0.428571 -0.285714    0.00291545 108 t-inv T
  0.142857  0.428571 -0.285714    0.00291545 109 t-inv T
  0.000000  0.285714 -0.285714    0.00291545 110 t-inv T
 -0.142857  0.285714 -0.285714    0.00291545 111 t-inv T
 -0.285714  0.285714 -0.285714    0.00291545 112 t-inv T
 -0.428571  0.285714 -0.285714    0.00291545 113 t-inv T
  0.428571  0.285714 -0.285714    0.00291545 114 t-inv T
  0.285714  0.285714 -0.285714    0.00291545 115 t-inv T
  0.142857  0.285714 -0.285714    0.00291545 116 t-inv T
  0.000000  0.142857 -0.285714    0.00291545 117 t-inv T
 -0.142857  0.142857 -0.285714    0.00291545 118 t-inv T
 -0.285714  0.142857 -0.285714    0.00291545 119 t-inv T
 -0.428571  0.142857 -0.285714    0.00291545 120 t-inv T
  0.428571  0.142857 -0.285714    0.00291545 121 t-inv T
  0.285714  0.142857 -0.285714    0.00291545 122 t-inv T
  0.142857  0.142857 -0.285714    0.00291545 123 t-inv T
  0.000000  0.000000 -0.428571    0.00291545 124 t-inv T
 -0.142857  0.000000 -0.428571    0.00291545 125 t-inv T
 -0.285714 -0.000000 -0.428571    0.00291545 126 t-inv T
 -0.428571 -0.000000 -0.428571    0.00291545 127 t-inv T
  0.428571 -0.000000 -0.428571    0.00291545 128 t-inv T
  0.285714 -0.000000 -0.428571    0.00291545 129 t-inv T
  0.142857 -0.000000 -0.428571    0.00291545 130 t-inv T
  0.000000 -0.142857 -0.428571    0.00291545 131 t-inv T
 -0.142857 -0.142857 -0.428571    0.00291545 132 t-inv T
 -0.285714 -0.142857 -0.428571    0.00291545 133 t-inv T
 -0.428571 -0.142857 -0.428571    0.00291545 134 t-inv T
  0.428571 -0.142857 -0.428571    0.00291545 135 t-inv T
  0.285714 -0.142857 -0.428571    0.00291545 136 t-inv T
  0.142857 -0.142857 -0.428571    0.00291545 137 t-inv T
  0.000000 -0.285714 -0.428571    0.00291545 138 t-inv T
 -0.142857 -0.285714 -0.428571    0.00291545 139 t-inv T
 -0.285714 -0.285714 -0.428571    0.00291545 140 t-inv T
 -0.428571 -0.285714 -0.428571    0.00291545 141 t-inv T
  0.428571 -0.285714 -0.428571    0.00291545 142 t-inv T
  0.285714 -0.285714 -0.428571    0.00291545 143 t-inv T
  0.142857 -0.285714 -0.428571    0.00291545 144 t-inv T
  0.000000 -0.428571 -0.428571    0.00291545 145 t-inv T
 -0.142857 -0.428571 -0.428571    0.00291545 146 t-inv T
 -0.285714 -0.428571 -0.428571    0.00291545 147 t-inv T
 -0.428571 -0.428571 -0.428571    0.00291545 148 t-inv T
  0.428571 -0.428571 -0.428571    0.00291545 149 t-inv T
  0.285714 -0.428571 -0.428571    0.00291545 150 t-inv T
  0.142857 -0.428571 -0.428571    0.00291545 151 t-inv T
  0.000000  0.428571 -0.428571    0.00291545 152 t-inv T
 -0.142857  0.428571 -0.428571    0.00291545 153 t-inv T
 -0.285714  0.428571 -0.428571    0.00291545 154 t-inv T
 -0.428571  0.428571 -0.428571    0.00291545 155 t-inv T
  0.428571  0.428571 -0.428571    0.00291545 156 t-inv T
  0.285714  0.428571 -0.428571    0.00291545 157 t-inv T
  0.142857  0.428571 -0.428571    0.00291545 158 t-inv T
  0.000000  0.285714 -0.428571    0.00291545 159 t-inv T
 -0.142857  0.285714 -0.428571    0.00291545 160 t-inv T
 -0.285714  0.285714 -0.428571    0.00291545 161 t-inv T
 -0.428571  0.285714 -0.428571    0.00291545 162 t-inv T
  0.428571  0.285714 -0.428571    0.00291545 163 t-inv T
  0.285714  0.285714 -0.428571    0.00291545 164 t-inv T
  0.142857  0.285714 -0.428571    0.00291545 165 t-inv T
  0.000000  0.142857 -0.428571    0.00291545 166 t-inv T
 -0.142857  0.142857 -0.428571    0.00291545 167 t-inv T
 -0.285714  0.142857 -0.428571    0.00291545 168 t-inv T
 -0.428571  0.142857 -0.428571    0.00291545 169 t-inv T
  0.428571  0.142857 -0.428571    0.00291545 170 t-inv T
  0.285714  0.142857 -0.428571    0.00291545 171 t-inv T
  0.142857  0.142857 -0.428571    0.00291545 172 t-inv T


--------------------------------------------------------------------------------------------------------




 Dimension of arrays:
   k-points           NKPTS =    172   k-points in BZ     NKDIM =    343   number of bands    NBANDS=    196
   number of dos      NEDOS =    301   number of ions     NIONS =      1
   non local maximal  LDIM  =      9   non local SUM 2l+1 LMDIM =     37
   total plane-waves  NPLWV =  21952
   max r-space proj   IRMAX =      1   max aug-charges    IRDMAX= 111272
   dimension x,y,z NGX =    28 NGY =   28 NGZ =   28
   dimension x,y,z NGXF=    56 NGYF=   56 NGZF=   56
   support grid    NGXF=   112 NGYF=  112 NGZF=  112
   ions per type =               1
   NGX,Y,Z   is equivalent  to a cutoff of  10.54, 10.54, 10.54 a.u.
   NGXF,Y,Z  is equivalent  to a cutoff of  21.09, 21.09, 21.09 a.u.

 SYSTEM =  Og_FCC                                  
 POSCAR =  Rn_FCC                                  

 Startparameter for this run:
   NWRITE =      1    write-flag & timer
   PREC   = accura    normal or accurate (medium, high low for compatibility)
   ISTART =      1    job   : 0-new  1-cont  2-samecut
   ICHARG =      0    charge: 1-file 2-atom 10-const
   ISPIN  =      1    spin polarized calculation?
   LNONCOLLINEAR =      F non collinear calculations
   LSORBIT =      F    spin-orbit coupling
   INIWAV =      1    electr: 0-lowe 1-rand  2-diag
   LASPH  =      F    aspherical Exc in radial PAW
   METAGGA=      F    non-selfconsistent MetaGGA calc.

 Electronic Relaxation 1
   ENCUT  =  300.0 eV  22.05 Ry    4.70 a.u.   6.23  6.23  6.23*2*pi/ulx,y,z
   ENINI  =  300.0     initial cutoff
   ENAUG  =  715.6 eV  augmentation charge cutoff
   NELM   =      1;   NELMIN=  2; NELMDL=  0     # of ELM steps 
   EDIFF  = 0.1E-07   stopping-criterion for ELM
   LREAL  =      F    real-space projection
   NLSPLINE    = F    spline interpolate recip. space projectors
   LCOMPAT=      F    compatible to vasp.4.4
   GGA_COMPAT  = F    GGA compatible to vasp.4.4-vasp.4.6
   LMAXPAW     = -100 max onsite density
   LMAXMIX     =    2 max onsite mixed and CHGCAR
   VOSKOWN=      0    Vosko Wilk Nusair interpolation
   ROPT   =    0.00000
 Ionic relaxation
   EDIFFG = 0.1E-04   stopping-criterion for IOM
   NSW    =      1    number of steps for IOM
   NBLOCK =      1;   KBLOCK =      1    inner block; outer block 
   IBRION =     -1    ionic relax: 0-MD 1-quasi-New 2-CG
   NFREE  =      5    steps in history (QN), initial steepest desc. (CG)
   ISIF   =      3    stress and relaxation
   IWAVPR =     10    prediction:  0-non 1-charg 2-wave 3-comb
   ISYM   =      0    0-nonsym 1-usesym 2-fastsym
   LCORR  =      T    Harris-Foulkes like correction to forces

   POTIM  = 0.1000    time-step for ionic-motion
   TEIN   =    0.0    initial temperature
   TEBEG  =    0.0;   TEEND  =   0.0 temperature during run
   SMASS  =  -3.00    Nose mass-parameter (am)
   estimated Nose-frequenzy (Omega)   =  0.10E-29 period in steps =****** mass=  -0.445E-27a.u.
   SCALEE = 1.0000    scale energy and forces
   NPACO  =    256;   APACO  = 16.0  distance and # of slots for P.C.
   PSTRESS=    0.0 pullay stress

  Mass of Ions in am
   POMASS = 220.17
  Ionic Valenz
   ZVAL   =  18.00
  Atomic Wigner-Seitz radii
   RWIGS  =  -1.00
  virtual crystal weights 
   VCA    =   1.00
   NELECT =      18.0000    total number of electrons
   NUPDOWN=      -1.0000    fix difference up-down

 DOS related values:
   EMIN   =  10.00;   EMAX   =-10.00  energy-range for DOS
   EFERMI =   0.00
   ISMEAR =     0;   SIGMA  =   0.00  broadening in eV -4-tet -1-fermi 0-gaus

 Electronic relaxation 2 (details)
   IALGO  =     38    algorithm
   LDIAG  =      T    sub-space diagonalisation (order eigenvalues)
   LSUBROT=      F    optimize rotation matrix (better conditioning)
   TURBO    =      0    0=normal 1=particle mesh
   IRESTART =      0    0=no restart 2=restart with 2 vectors
   NREBOOT  =      0    no. of reboots
   NMIN     =      0    reboot dimension
   EREF     =   0.00    reference energy to select bands
   IMIX   =      1    mixing-type and parameters
     AMIX     =   0.40;   BMIX     =  1.00
     AMIX_MAG =   1.60;   BMIX_MAG =  1.00
     AMIN     =   0.10
     WC   =   100.;   INIMIX=   1;  MIXPRE=   1;  MAXMIX=  50

 Intra band minimization:
   WEIMIN = 0.0000     energy-eigenvalue tresh-hold
   EBREAK =  0.13E-10  absolut break condition
   DEPER  =   0.30     relativ break condition  

   TIME   =   0.40     timestep for ELM

  volume/ion in A,a.u.               =      60.83       410.53
  Fermi-wavevector in a.u.,A,eV,Ry     =   1.090892  2.061487 16.191546  1.190045
  Thomas-Fermi vector in A             =   2.227126
 
 Write flags
   LWAVE        =      T    write WAVECAR
   LDOWNSAMPLE  =      F    k-point downsampling of WAVECAR
   LCHARG       =      F    write CHGCAR
   LVTOT        =      F    write LOCPOT, total local potential
   LVHAR        =      F    write LOCPOT, Hartree potential only
   LELF         =      F    write electronic localiz. function (ELF)
   LORBIT       =      0    0 simple, 1 ext, 2 COOP (PROOUT), +10 PAW based schemes


 Dipole corrections
   LMONO  =      F    monopole corrections only (constant potential shift)
   LDIPOL =      F    correct potential (dipole corrections)
   IDIPOL =      0    1-x, 2-y, 3-z, 4-all directions 
   EPSILON=  1.0000000 bulk dielectric constant

 Exchange correlation treatment:
   GGA     =    PE    GGA type
   LEXCH   =     8    internal setting for exchange type
   VOSKOWN=      0    Vosko Wilk Nusair interpolation
   EXXOEP  =     0    0=HF, 1=EXX-LHF (local Hartree Fock) 2=EXX OEP
   LHFCALC =     T    Hartree Fock is set to
   LSYMGRAD=     F    symmetrize gradient (conserves proper symmetry)
   PRECFOCK=normal    Normal, Fast or Accurate (Low or Medium for compatibility)
   LRHFCALC=     F    long range Hartree Fock
   LRSCOR  =     F    long range correlation only (use DFT for short range part)
   LTHOMAS =     F    Thomas Fermi screening in HF
   LMODELHF=     F    short range full HF, long range fraction AEXX
   ENCUT4O =  -1.0   cutoff for four orbital integrals eV
   LMAXFOCK=     4    L truncation for augmentation on plane wave grid
   LMAXFOCKAE=   4    L truncation for all-electron charge restoration on plane wave grid
   NMAXFOCKAE=   1    number of basis functions for all-electron charge restoration
   LFOCKAEDFT=     F  apply the AE augmentation even for DFT
   NKREDX  =     1    reduce k-point grid by
   NKREDY  =     1    reduce k-point grid by
   NKREDZ  =     1    reduce k-point grid by
   SHIFTRED=     F    shift reduced grid of Gamma
   HFKIDENT=     F    idential grid for each k-point
   ODDONLY =     F    use only odd q-grid points
   EVENONLY=     F    use only even q-grid points
   HFALPHA =   -1.0000 decay constant for conv. correction
   MCALPHA =    0.0000 extent of test-charge in conv. correction in multipole expansion
   AEXX    =    1.0000 exact exchange contribution
   HFSCREEN=    0.0000 screening length (either q_TF or 0.3 A-1)
   HFSCREENC=   0.0000 screening length for correlation (either q_TF or 0.3 A-1)
   HFRCUT  =    0.0000 spherical cutoff for potential kernel
   ALDAX   =    0.0000 LDA exchange part
   AGGAX   =    0.0000 GGA exchange part
   ALDAC   =    0.0000 LDA correlation
   AGGAC   =    0.0000 GGA correlation
   ENCUTFOCK=  -1.0 apply spherical cutoff to Coloumb kernel
   NBANDSGWLOW=     1    first orbital included in HF term
   NBLOCK_FOCK=    64    blocking factor in FOCK_ACC
 Linear response parameters
   LEPSILON=     F    determine dielectric tensor
   LRPA    =     F    only Hartree local field effects (RPA)
   LNABLA  =     F    use nabla operator in PAW spheres
   LVEL    =     F    velocity operator in full k-point grid
   LINTERFAST=   F  fast interpolation
   KINTER  =     0    interpolate to denser k-point grid
   CSHIFT  =0.1000    complex shift for real part using Kramers Kronig
   OMEGAMAX=  -1.0    maximum frequency
   DEG_THRESHOLD= 0.2000000E-02 threshold for treating states as degnerate
   RTIME   =   -0.100 relaxation time in fs
  (WPLASMAI=    0.000 imaginary part of plasma frequency in eV, 0.658/RTIME)
   DFIELD  = 0.0000000 0.0000000 0.0000000 field for delta impulse in time
 
 Orbital magnetization related:
   ORBITALMAG=     F  switch on orbital magnetization
   LCHIMAG   =     F  perturbation theory with respect to B field
   DQ        =  0.001000  dq finite difference perturbation B field
   LLRAUG    =     F  two centre corrections for induced B field

 Response functions by sum over occupied states:
   ALGO    =QPGW       execute GW part
   LFXC    =     F    include DFT xc kernel in TD-HF and W
   LADDER  =     F    particle hole ladder diagrams for BSE/TD-HF and W (Nano-quanta)
   LRPAFORCE=     F   calculate RPA forces
   LHARTREE=     T    include Hartree terms (bubbles-RPA) in BSE/TD-HF
   IBSE    =     0    BSE modus: 0 exact, 1 time-evolution (store matrix), 10 time-evolution (implicit)
   KPOINT  =    -1   0   0   0    k-point index at which BSE equation is solved (and G at which response is eval.)
   LTRIPLET=     F    triplet instead of singlet excitation (BSE only)
   LRSRPA  =     F    range separated RPA (total - short) in ACFDT
   LTCTE   =     F    use test-charge test-electron dielectric function
   LTETE   =     F    use test-electron test-electron dielectric function
   LFXCEPS =     F    determine f_xc=epsilon-1/Xi Sharma and Gross kernel
   LFXHEG  =     F    model exchange using f_x(G,k_F) from free electron gas
   NATURALO=     2    0 natural orbitals, 1 only virtual, 2 only occupied-virtual rotation
   L2ORDER =     F    2nd order terms only
   LMP2LT   =     F    use LT MP2
   LUSEW   =     F    use screened W from WXXXX.tmp files instead of (screened) HF kernel
   ENCUTGW = 200.0    cutoff for response function in eV
   ENCUTGWSOFT = 200.0 soft cutoff for Coulomb kernel in GW response function in eV
   ENCUTLF =  -1.0    cutoff for local field effects
   LMAXMP2 =    -1    maximum L for one center terms
   SCISSOR =   0.0    scissor correction
   NOMEGA  =    50    number of frequencies
   NOMEGAR =    50    number of frequencies along real axis
   NBANDSGW=    -1    number of bands for which selfenergy shift is calculated
   NBANDSGWLOW=     1 lowest band included in GW (to exclude core correlation)
   NBANDSO =    -1    number of bands for electron-hole treatment (occupied)
   NBANDSV =    -1    number of bands for electron-hole treatment (virtual)
   NELM    =     1    number of iterations in solving QP/BSE equation
   NELMHF  =     1    number of iterations in the inner HF iteration
   DIM     =     3    dimensionality of system (0=0D molecules, 3=3D)
   ANTIRES =     0    antiresonant part (0) no TDA (1) w=0 exact (2) accurate
   OMEGAMAX= -30.0    maximum frequency
   OMEGAMIN= -30.000    minimum frequency
   OMEGATL =-200.0    maximum frequency of tail
   OMEGAGRID=     0    grid type (0 default)
   CSHIFT  =-0.100    complex shift used in evaluation of response functions
   SELFENERGY=   F    calculate selfenergy instead of QP shifts
   LSPECTRAL =   T    use spectral functions                   
   LSPECTRALGW=   F   use spectral functions to calculate int dz G(w-z) W(z) (more accurate)
   LSINGLES  =   F   calculate the singles contribution to the correlation energy
   LFERMIGW  =   F   update Fermi-energy in the Greens function

   ODDONLYGW =   F    avoid all even points for polarizability 
   EVENONLYGW=   F    avoid all odd  points for polarizability 
   NKREDLFX  =   1   NKREDLFY  =   1   NKREDLFZ  =   1

   TELESCOPE =   0   use telescope k-point sampling
   TAUPAR    =   1   number of TAU groups used in imaginary time calculation
   OMEGAPAR  =  -1   number of OMEGA groups used in imaginary frequency calculation



--------------------------------------------------------------------------------------------------------


 Static calculation
 charge density and potential will be updated during run
 non-spin polarized calculation
 Variant of blocked Davidson
 Davidson routine will perform the subspace rotation
 perform sub-space diagonalisation
    after iterative eigenvector-optimisation
 Kerker-like  mixing scheme
 using additional bands          187
 reciprocal scheme for non local part
 use partial core corrections
 calculate Harris-corrections to forces 
   (improved forces if not selfconsistent)
 use gradient corrections 
 use of overlap-Matrix (Vanderbilt PP)
 Gauss-broadening in eV      SIGMA  =   0.00


--------------------------------------------------------------------------------------------------------


  energy-cutoff  :      300.00
  volume of cell :       60.83
      direct lattice vectors                 reciprocal lattice vectors
     4.414575608  0.000000000  0.000000000     0.226522341 -0.130782734 -0.092477358
     2.207287804  3.823134623 -0.000000000     0.000000000  0.261565469 -0.092477358
     2.207287804  1.274378208  3.604485890    -0.000000000  0.000000000  0.277432075

  length of vectors
     4.414575608  4.414575608  4.414575608     0.277432075  0.277432075  0.277432075


 
 old parameters found on file WAVECAR:
  energy-cutoff  :      300.00
  volume of cell :       60.83
      direct lattice vectors                 reciprocal lattice vectors
     4.414575608  0.000000000  0.000000000     0.226522341 -0.130782734 -0.092477358
     2.207287804  3.823134623 -0.000000000     0.000000000  0.261565469 -0.092477358
     2.207287804  1.274378208  3.604485890    -0.000000000  0.000000000  0.277432075

  length of vectors

 
 k-points in units of 2pi/SCALE and weight: k-points                                
   0.00000000  0.00000000  0.00000000       0.003
   0.03160161 -0.01824520 -0.01290130       0.006
   0.06320323 -0.03649040 -0.02580261       0.006
   0.09480484 -0.05473560 -0.03870391       0.006
   0.00000000  0.03649040 -0.01290130       0.006
   0.03160161  0.01824520 -0.02580261       0.006
   0.06320323  0.00000000 -0.03870391       0.006
   0.09480484 -0.01824520 -0.05160522       0.006
  -0.09480484  0.09122600  0.02580261       0.006
  -0.06320323  0.07298080  0.01290130       0.006
  -0.03160161  0.05473560  0.00000000       0.006
   0.00000000  0.07298080 -0.02580261       0.006
   0.03160161  0.05473560 -0.03870391       0.006
   0.06320323  0.03649040 -0.05160522       0.006
   0.09480484  0.01824520 -0.06450652       0.006
  -0.09480484  0.12771640  0.01290130       0.006
  -0.06320323  0.10947120  0.00000000       0.006
  -0.03160161  0.09122600 -0.01290130       0.006
   0.00000000  0.10947120 -0.03870391       0.006
   0.03160161  0.09122600 -0.05160522       0.006
   0.06320323  0.07298080 -0.06450652       0.006
   0.09480484  0.05473560 -0.07740783       0.006
  -0.09480484  0.16420680  0.00000000       0.006
  -0.06320323  0.14596160 -0.01290130       0.006
  -0.03160161  0.12771640 -0.02580261       0.006
  -0.00000000  0.00000000  0.03870391       0.006
   0.03160161 -0.01824520  0.02580261       0.006
   0.06320323 -0.03649040  0.01290130       0.006
   0.09480484 -0.05473560 -0.00000000       0.006
  -0.09480484  0.05473560  0.07740783       0.006
  -0.06320323  0.03649040  0.06450652       0.006
  -0.03160161  0.01824520  0.05160522       0.006
  -0.00000000  0.03649040  0.02580261       0.006
   0.03160161  0.01824520  0.01290130       0.006
   0.06320323  0.00000000  0.00000000       0.006
   0.09480484 -0.01824520 -0.01290130       0.006
  -0.09480484  0.09122600  0.06450652       0.006
  -0.06320323  0.07298080  0.05160522       0.006
  -0.03160161  0.05473560  0.03870391       0.006
  -0.00000000  0.07298080  0.01290130       0.006
   0.03160161  0.05473560  0.00000000       0.006
   0.06320323  0.03649040 -0.01290130       0.006
   0.09480484  0.01824520 -0.02580261       0.006
  -0.09480484  0.12771640  0.05160522       0.006
  -0.06320323  0.10947120  0.03870391       0.006
  -0.03160161  0.09122600  0.02580261       0.006
  -0.00000000  0.10947120  0.00000000       0.006
   0.03160161  0.09122600 -0.01290130       0.006
   0.06320323  0.07298080 -0.02580261       0.006
   0.09480484  0.05473560 -0.03870391       0.006
  -0.09480484  0.16420680  0.03870391       0.006
  -0.06320323  0.14596160  0.02580261       0.006
  -0.03160161  0.12771640  0.01290130       0.006
  -0.00000000 -0.10947120  0.07740783       0.006
   0.03160161 -0.12771640  0.06450652       0.006
   0.06320323 -0.14596160  0.05160522       0.006
   0.09480484 -0.16420680  0.03870391       0.006
  -0.09480484 -0.05473560  0.11611174       0.006
  -0.06320323 -0.07298080  0.10321044       0.006
  -0.03160161 -0.09122600  0.09030913       0.006
  -0.00000000 -0.07298080  0.06450652       0.006
   0.03160161 -0.09122600  0.05160522       0.006
   0.06320323 -0.10947120  0.03870391       0.006
   0.09480484 -0.12771640  0.02580261       0.006
  -0.09480484 -0.01824520  0.10321044       0.006
  -0.06320323 -0.03649040  0.09030913       0.006
  -0.03160161 -0.05473560  0.07740783       0.006
  -0.00000000 -0.03649040  0.05160522       0.006
   0.03160161 -0.05473560  0.03870391       0.006
   0.06320323 -0.07298080  0.02580261       0.006
   0.09480484 -0.09122600  0.01290130       0.006
  -0.09480484  0.01824520  0.09030913       0.006
  -0.06320323 -0.00000000  0.07740783       0.006
  -0.03160161 -0.01824520  0.06450652       0.006
  -0.00000000  0.00000000  0.07740783       0.006
   0.03160161 -0.01824520  0.06450652       0.006
   0.06320323 -0.03649040  0.05160522       0.006
   0.09480484 -0.05473560  0.03870391       0.006
  -0.09480484  0.05473560  0.11611174       0.006
  -0.06320323  0.03649040  0.10321044       0.006
  -0.03160161  0.01824520  0.09030913       0.006
  -0.00000000  0.03649040  0.06450652       0.006
   0.03160161  0.01824520  0.05160522       0.006
   0.06320323  0.00000000  0.03870391       0.006
   0.09480484 -0.01824520  0.02580261       0.006
  -0.09480484  0.09122600  0.10321044       0.006
  -0.06320323  0.07298080  0.09030913       0.006
  -0.03160161  0.05473560  0.07740783       0.006
  -0.00000000  0.07298080  0.05160522       0.006
   0.03160161  0.05473560  0.03870391       0.006
   0.06320323  0.03649040  0.02580261       0.006
   0.09480484  0.01824520  0.01290130       0.006
  -0.09480484  0.12771640  0.09030913       0.006
  -0.06320323  0.10947120  0.07740783       0.006
  -0.03160161  0.09122600  0.06450652       0.006
  -0.00000000  0.10947120  0.03870391       0.006
   0.03160161  0.09122600  0.02580261       0.006
   0.06320323  0.07298080  0.01290130       0.006
   0.09480484  0.05473560  0.00000000       0.006
  -0.09480484  0.16420680  0.07740783       0.006
  -0.06320323  0.14596160  0.06450652       0.006
  -0.03160161  0.12771640  0.05160522       0.006
  -0.00000000 -0.10947120  0.11611174       0.006
   0.03160161 -0.12771640  0.10321044       0.006
   0.06320323 -0.14596160  0.09030913       0.006
   0.09480484 -0.16420680  0.07740783       0.006
  -0.09480484 -0.05473560  0.15481566       0.006
  -0.06320323 -0.07298080  0.14191435       0.006
  -0.03160161 -0.09122600  0.12901305       0.006
  -0.00000000 -0.07298080  0.10321044       0.006
   0.03160161 -0.09122600  0.09030913       0.006
   0.06320323 -0.10947120  0.07740783       0.006
   0.09480484 -0.12771640  0.06450652       0.006
  -0.09480484 -0.01824520  0.14191435       0.006
  -0.06320323 -0.03649040  0.12901305       0.006
  -0.03160161 -0.05473560  0.11611174       0.006
  -0.00000000 -0.03649040  0.09030913       0.006
   0.03160161 -0.05473560  0.07740783       0.006
   0.06320323 -0.07298080  0.06450652       0.006
   0.09480484 -0.09122600  0.05160522       0.006
  -0.09480484  0.01824520  0.12901305       0.006
  -0.06320323 -0.00000000  0.11611174       0.006
  -0.03160161 -0.01824520  0.10321044       0.006
  -0.00000000  0.00000000  0.11611174       0.006
   0.03160161 -0.01824520  0.10321044       0.006
   0.06320323 -0.03649040  0.09030913       0.006
   0.09480484 -0.05473560  0.07740783       0.006
  -0.09480484  0.05473560  0.15481566       0.006
  -0.06320323  0.03649040  0.14191435       0.006
  -0.03160161  0.01824520  0.12901305       0.006
  -0.00000000  0.03649040  0.10321044       0.006
   0.03160161  0.01824520  0.09030913       0.006
   0.06320323  0.00000000  0.07740783       0.006
   0.09480484 -0.01824520  0.06450652       0.006
  -0.09480484  0.09122600  0.14191435       0.006
  -0.06320323  0.07298080  0.12901305       0.006
  -0.03160161  0.05473560  0.11611174       0.006
  -0.00000000  0.07298080  0.09030913       0.006
   0.03160161  0.05473560  0.07740783       0.006
   0.06320323  0.03649040  0.06450652       0.006
   0.09480484  0.01824520  0.05160522       0.006
  -0.09480484  0.12771640  0.12901305       0.006
  -0.06320323  0.10947120  0.11611174       0.006
  -0.03160161  0.09122600  0.10321044       0.006
  -0.00000000  0.10947120  0.07740783       0.006
   0.03160161  0.09122600  0.06450652       0.006
   0.06320323  0.07298080  0.05160522       0.006
   0.09480484  0.05473560  0.03870391       0.006
  -0.09480484  0.16420680  0.11611174       0.006
  -0.06320323  0.14596160  0.10321044       0.006
  -0.03160161  0.12771640  0.09030913       0.006
  -0.00000000 -0.10947120  0.15481566       0.006
   0.03160161 -0.12771640  0.14191435       0.006
   0.06320323 -0.14596160  0.12901305       0.006
   0.09480484 -0.16420680  0.11611174       0.006
  -0.09480484 -0.05473560  0.19351957       0.006
  -0.06320323 -0.07298080  0.18061827       0.006
  -0.03160161 -0.09122600  0.16771696       0.006
  -0.00000000 -0.07298080  0.14191435       0.006
   0.03160161 -0.09122600  0.12901305       0.006
   0.06320323 -0.10947120  0.11611174       0.006
   0.09480484 -0.12771640  0.10321044       0.006
  -0.09480484 -0.01824520  0.18061827       0.006
  -0.06320323 -0.03649040  0.16771696       0.006
  -0.03160161 -0.05473560  0.15481566       0.006
  -0.00000000 -0.03649040  0.12901305       0.006
   0.03160161 -0.05473560  0.11611174       0.006
   0.06320323 -0.07298080  0.10321044       0.006
   0.09480484 -0.09122600  0.09030913       0.006
  -0.09480484  0.01824520  0.16771696       0.006
  -0.06320323 -0.00000000  0.15481566       0.006
  -0.03160161 -0.01824520  0.14191435       0.006
 
 k-points in reciprocal lattice and weights: k-points                                
   0.00000000  0.00000000  0.00000000       0.003
   0.14285714 -0.00000000 -0.00000000       0.006
   0.28571429  0.00000000 -0.00000000       0.006
   0.42857143  0.00000000  0.00000000       0.006
   0.00000000  0.14285714  0.00000000       0.006
   0.14285714  0.14285714 -0.00000000       0.006
   0.28571429  0.14285714 -0.00000000       0.006
   0.42857143  0.14285714  0.00000000       0.006
  -0.42857143  0.14285714 -0.00000000       0.006
  -0.28571429  0.14285714  0.00000000       0.006
  -0.14285714  0.14285714 -0.00000000       0.006
   0.00000000  0.28571429  0.00000000       0.006
   0.14285714  0.28571429 -0.00000000       0.006
   0.28571429  0.28571429 -0.00000000       0.006
   0.42857143  0.28571429  0.00000000       0.006
  -0.42857143  0.28571429  0.00000000       0.006
  -0.28571429  0.28571429  0.00000000       0.006
  -0.14285714  0.28571429 -0.00000000       0.006
   0.00000000  0.42857143  0.00000000       0.006
   0.14285714  0.42857143  0.00000000       0.006
   0.28571429  0.42857143  0.00000000       0.006
   0.42857143  0.42857143  0.00000000       0.006
  -0.42857143  0.42857143 -0.00000000       0.006
  -0.28571429  0.42857143 -0.00000000       0.006
  -0.14285714  0.42857143  0.00000000       0.006
   0.00000000  0.00000000  0.14285714       0.006
   0.14285714 -0.00000000  0.14285714       0.006
   0.28571429 -0.00000000  0.14285714       0.006
   0.42857143  0.00000000  0.14285714       0.006
  -0.42857143 -0.00000000  0.14285714       0.006
  -0.28571429 -0.00000000  0.14285714       0.006
  -0.14285714  0.00000000  0.14285714       0.006
  -0.00000000  0.14285714  0.14285714       0.006
   0.14285714  0.14285714  0.14285714       0.006
   0.28571429  0.14285714  0.14285714       0.006
   0.42857143  0.14285714  0.14285714       0.006
  -0.42857143  0.14285714  0.14285714       0.006
  -0.28571429  0.14285714  0.14285714       0.006
  -0.14285714  0.14285714  0.14285714       0.006
  -0.00000000  0.28571429  0.14285714       0.006
   0.14285714  0.28571429  0.14285714       0.006
   0.28571429  0.28571429  0.14285714       0.006
   0.42857143  0.28571429  0.14285714       0.006
  -0.42857143  0.28571429  0.14285714       0.006
  -0.28571429  0.28571429  0.14285714       0.006
  -0.14285714  0.28571429  0.14285714       0.006
  -0.00000000  0.42857143  0.14285714       0.006
   0.14285714  0.42857143  0.14285714       0.006
   0.28571429  0.42857143  0.14285714       0.006
   0.42857143  0.42857143  0.14285714       0.006
  -0.42857143  0.42857143  0.14285714       0.006
  -0.28571429  0.42857143  0.14285714       0.006
  -0.14285714  0.42857143  0.14285714       0.006
   0.00000000 -0.42857143  0.14285714       0.006
   0.14285714 -0.42857143  0.14285714       0.006
   0.28571429 -0.42857143  0.14285714       0.006
   0.42857143 -0.42857143  0.14285714       0.006
  -0.42857143 -0.42857143  0.14285714       0.006
  -0.28571429 -0.42857143  0.14285714       0.006
  -0.14285714 -0.42857143  0.14285714       0.006
   0.00000000 -0.28571429  0.14285714       0.006
   0.14285714 -0.28571429  0.14285714       0.006
   0.28571429 -0.28571429  0.14285714       0.006
   0.42857143 -0.28571429  0.14285714       0.006
  -0.42857143 -0.28571429  0.14285714       0.006
  -0.28571429 -0.28571429  0.14285714       0.006
  -0.14285714 -0.28571429  0.14285714       0.006
  -0.00000000 -0.14285714  0.14285714       0.006
   0.14285714 -0.14285714  0.14285714       0.006
   0.28571429 -0.14285714  0.14285714       0.006
   0.42857143 -0.14285714  0.14285714       0.006
  -0.42857143 -0.14285714  0.14285714       0.006
  -0.28571429 -0.14285714  0.14285714       0.006
  -0.14285714 -0.14285714  0.14285714       0.006
   0.00000000  0.00000000  0.28571429       0.006
   0.14285714  0.00000000  0.28571429       0.006
   0.28571429 -0.00000000  0.28571429       0.006
   0.42857143 -0.00000000  0.28571429       0.006
  -0.42857143 -0.00000000  0.28571429       0.006
  -0.28571429 -0.00000000  0.28571429       0.006
  -0.14285714  0.00000000  0.28571429       0.006
  -0.00000000  0.14285714  0.28571429       0.006
   0.14285714  0.14285714  0.28571429       0.006
   0.28571429  0.14285714  0.28571429       0.006
   0.42857143  0.14285714  0.28571429       0.006
  -0.42857143  0.14285714  0.28571429       0.006
  -0.28571429  0.14285714  0.28571429       0.006
  -0.14285714  0.14285714  0.28571429       0.006
  -0.00000000  0.28571429  0.28571429       0.006
   0.14285714  0.28571429  0.28571429       0.006
   0.28571429  0.28571429  0.28571429       0.006
   0.42857143  0.28571429  0.28571429       0.006
  -0.42857143  0.28571429  0.28571429       0.006
  -0.28571429  0.28571429  0.28571429       0.006
  -0.14285714  0.28571429  0.28571429       0.006
  -0.00000000  0.42857143  0.28571429       0.006
   0.14285714  0.42857143  0.28571429       0.006
   0.28571429  0.42857143  0.28571429       0.006
   0.42857143  0.42857143  0.28571429       0.006
  -0.42857143  0.42857143  0.28571429       0.006
  -0.28571429  0.42857143  0.28571429       0.006
  -0.14285714  0.42857143  0.28571429       0.006
   0.00000000 -0.42857143  0.28571429       0.006
   0.14285714 -0.42857143  0.28571429       0.006
   0.28571429 -0.42857143  0.28571429       0.006
   0.42857143 -0.42857143  0.28571429       0.006
  -0.42857143 -0.42857143  0.28571429       0.006
  -0.28571429 -0.42857143  0.28571429       0.006
  -0.14285714 -0.42857143  0.28571429       0.006
  -0.00000000 -0.28571429  0.28571429       0.006
   0.14285714 -0.28571429  0.28571429       0.006
   0.28571429 -0.28571429  0.28571429       0.006
   0.42857143 -0.28571429  0.28571429       0.006
  -0.42857143 -0.28571429  0.28571429       0.006
  -0.28571429 -0.28571429  0.28571429       0.006
  -0.14285714 -0.28571429  0.28571429       0.006
   0.00000000 -0.14285714  0.28571429       0.006
   0.14285714 -0.14285714  0.28571429       0.006
   0.28571429 -0.14285714  0.28571429       0.006
   0.42857143 -0.14285714  0.28571429       0.006
  -0.42857143 -0.14285714  0.28571429       0.006
  -0.28571429 -0.14285714  0.28571429       0.006
  -0.14285714 -0.14285714  0.28571429       0.006
  -0.00000000  0.00000000  0.42857143       0.006
   0.14285714 -0.00000000  0.42857143       0.006
   0.28571429  0.00000000  0.42857143       0.006
   0.42857143  0.00000000  0.42857143       0.006
  -0.42857143  0.00000000  0.42857143       0.006
  -0.28571429  0.00000000  0.42857143       0.006
  -0.14285714  0.00000000  0.42857143       0.006
  -0.00000000  0.14285714  0.42857143       0.006
   0.14285714  0.14285714  0.42857143       0.006
   0.28571429  0.14285714  0.42857143       0.006
   0.42857143  0.14285714  0.42857143       0.006
  -0.42857143  0.14285714  0.42857143       0.006
  -0.28571429  0.14285714  0.42857143       0.006
  -0.14285714  0.14285714  0.42857143       0.006
  -0.00000000  0.28571429  0.42857143       0.006
   0.14285714  0.28571429  0.42857143       0.006
   0.28571429  0.28571429  0.42857143       0.006
   0.42857143  0.28571429  0.42857143       0.006
  -0.42857143  0.28571429  0.42857143       0.006
  -0.28571429  0.28571429  0.42857143       0.006
  -0.14285714  0.28571429  0.42857143       0.006
  -0.00000000  0.42857143  0.42857143       0.006
   0.14285714  0.42857143  0.42857143       0.006
   0.28571429  0.42857143  0.42857143       0.006
   0.42857143  0.42857143  0.42857143       0.006
  -0.42857143  0.42857143  0.42857143       0.006
  -0.28571429  0.42857143  0.42857143       0.006
  -0.14285714  0.42857143  0.42857143       0.006
  -0.00000000 -0.42857143  0.42857143       0.006
   0.14285714 -0.42857143  0.42857143       0.006
   0.28571429 -0.42857143  0.42857143       0.006
   0.42857143 -0.42857143  0.42857143       0.006
  -0.42857143 -0.42857143  0.42857143       0.006
  -0.28571429 -0.42857143  0.42857143       0.006
  -0.14285714 -0.42857143  0.42857143       0.006
  -0.00000000 -0.28571429  0.42857143       0.006
   0.14285714 -0.28571429  0.42857143       0.006
   0.28571429 -0.28571429  0.42857143       0.006
   0.42857143 -0.28571429  0.42857143       0.006
  -0.42857143 -0.28571429  0.42857143       0.006
  -0.28571429 -0.28571429  0.42857143       0.006
  -0.14285714 -0.28571429  0.42857143       0.006
  -0.00000000 -0.14285714  0.42857143       0.006
   0.14285714 -0.14285714  0.42857143       0.006
   0.28571429 -0.14285714  0.42857143       0.006
   0.42857143 -0.14285714  0.42857143       0.006
  -0.42857143 -0.14285714  0.42857143       0.006
  -0.28571429 -0.14285714  0.42857143       0.006
  -0.14285714 -0.14285714  0.42857143       0.006
 
 position of ions in fractional coordinates (direct lattice) 
   0.00000000  0.00000000  0.00000000
 
 position of ions in cartesian coordinates  (Angst):
   0.00000000  0.00000000  0.00000000
 


--------------------------------------------------------------------------------------------------------


 k-point  1 :   0.0000 0.0000 0.0000  plane waves:     725
 k-point  2 :   0.1429-0.0000-0.0000  plane waves:     712
 k-point  3 :   0.2857 0.0000-0.0000  plane waves:     718
 k-point  4 :   0.4286 0.0000 0.0000  plane waves:     724
 k-point  5 :   0.0000 0.1429 0.0000  plane waves:     712
 k-point  6 :   0.1429 0.1429-0.0000  plane waves:     701
 k-point  7 :   0.2857 0.1429-0.0000  plane waves:     710
 k-point  8 :   0.4286 0.1429 0.0000  plane waves:     714
 k-point  9 :  -0.4286 0.1429-0.0000  plane waves:     716
 k-point 10 :  -0.2857 0.1429 0.0000  plane waves:     722
 k-point 11 :  -0.1429 0.1429-0.0000  plane waves:     714
 k-point 12 :   0.0000 0.2857 0.0000  plane waves:     718
 k-point 13 :   0.1429 0.2857-0.0000  plane waves:     710
 k-point 14 :   0.2857 0.2857-0.0000  plane waves:     721
 k-point 15 :   0.4286 0.2857 0.0000  plane waves:     722
 k-point 16 :  -0.4286 0.2857 0.0000  plane waves:     718
 k-point 17 :  -0.2857 0.2857 0.0000  plane waves:     706
 k-point 18 :  -0.1429 0.2857-0.0000  plane waves:     722
 k-point 19 :   0.0000 0.4286 0.0000  plane waves:     724
 k-point 20 :   0.1429 0.4286 0.0000  plane waves:     714
 k-point 21 :   0.2857 0.4286 0.0000  plane waves:     722
 k-point 22 :   0.4286 0.4286 0.0000  plane waves:     716
 k-point 23 :  -0.4286 0.4286-0.0000  plane waves:     726
 k-point 24 :  -0.2857 0.4286-0.0000  plane waves:     718
 k-point 25 :  -0.1429 0.4286 0.0000  plane waves:     716
 k-point 26 :   0.0000 0.0000 0.1429  plane waves:     712
 k-point 27 :   0.1429-0.0000 0.1429  plane waves:     701
 k-point 28 :   0.2857-0.0000 0.1429  plane waves:     710
 k-point 29 :   0.4286 0.0000 0.1429  plane waves:     714
 k-point 30 :  -0.4286-0.0000 0.1429  plane waves:     716
 k-point 31 :  -0.2857-0.0000 0.1429  plane waves:     722
 k-point 32 :  -0.1429 0.0000 0.1429  plane waves:     714
 k-point 33 :  -0.0000 0.1429 0.1429  plane waves:     701
 k-point 34 :   0.1429 0.1429 0.1429  plane waves:     712
 k-point 35 :   0.2857 0.1429 0.1429  plane waves:     714
 k-point 36 :   0.4286 0.1429 0.1429  plane waves:     722
 k-point 37 :  -0.4286 0.1429 0.1429  plane waves:     716
 k-point 38 :  -0.2857 0.1429 0.1429  plane waves:     714
 k-point 39 :  -0.1429 0.1429 0.1429  plane waves:     710
 k-point 40 :  -0.0000 0.2857 0.1429  plane waves:     710
 k-point 41 :   0.1429 0.2857 0.1429  plane waves:     714
 k-point 42 :   0.2857 0.2857 0.1429  plane waves:     710
 k-point 43 :   0.4286 0.2857 0.1429  plane waves:     722
 k-point 44 :  -0.4286 0.2857 0.1429  plane waves:     721
 k-point 45 :  -0.2857 0.2857 0.1429  plane waves:     721
 k-point 46 :  -0.1429 0.2857 0.1429  plane waves:     722
 k-point 47 :  -0.0000 0.4286 0.1429  plane waves:     714
 k-point 48 :   0.1429 0.4286 0.1429  plane waves:     722
 k-point 49 :   0.2857 0.4286 0.1429  plane waves:     722
 k-point 50 :   0.4286 0.4286 0.1429  plane waves:     722
 k-point 51 :  -0.4286 0.4286 0.1429  plane waves:     721
 k-point 52 :  -0.2857 0.4286 0.1429  plane waves:     715
 k-point 53 :  -0.1429 0.4286 0.1429  plane waves:     721
 k-point 54 :   0.0000-0.4286 0.1429  plane waves:     716
 k-point 55 :   0.1429-0.4286 0.1429  plane waves:     716
 k-point 56 :   0.2857-0.4286 0.1429  plane waves:     721
 k-point 57 :   0.4286-0.4286 0.1429  plane waves:     721
 k-point 58 :  -0.4286-0.4286 0.1429  plane waves:     726
 k-point 59 :  -0.2857-0.4286 0.1429  plane waves:     721
 k-point 60 :  -0.1429-0.4286 0.1429  plane waves:     721
 k-point 61 :   0.0000-0.2857 0.1429  plane waves:     722
 k-point 62 :   0.1429-0.2857 0.1429  plane waves:     714
 k-point 63 :   0.2857-0.2857 0.1429  plane waves:     721
 k-point 64 :   0.4286-0.2857 0.1429  plane waves:     715
 k-point 65 :  -0.4286-0.2857 0.1429  plane waves:     721
 k-point 66 :  -0.2857-0.2857 0.1429  plane waves:     722
 k-point 67 :  -0.1429-0.2857 0.1429  plane waves:     722
 k-point 68 :  -0.0000-0.1429 0.1429  plane waves:     714
 k-point 69 :   0.1429-0.1429 0.1429  plane waves:     710
 k-point 70 :   0.2857-0.1429 0.1429  plane waves:     722
 k-point 71 :   0.4286-0.1429 0.1429  plane waves:     721
 k-point 72 :  -0.4286-0.1429 0.1429  plane waves:     721
 k-point 73 :  -0.2857-0.1429 0.1429  plane waves:     722
 k-point 74 :  -0.1429-0.1429 0.1429  plane waves:     710
 k-point 75 :   0.0000 0.0000 0.2857  plane waves:     718
 k-point 76 :   0.1429 0.0000 0.2857  plane waves:     710
 k-point 77 :   0.2857-0.0000 0.2857  plane waves:     721
 k-point 78 :   0.4286-0.0000 0.2857  plane waves:     722
 k-point 79 :  -0.4286-0.0000 0.2857  plane waves:     718
 k-point 80 :  -0.2857-0.0000 0.2857  plane waves:     706
 k-point 81 :  -0.1429 0.0000 0.2857  plane waves:     722
 k-point 82 :  -0.0000 0.1429 0.2857  plane waves:     710
 k-point 83 :   0.1429 0.1429 0.2857  plane waves:     714
 k-point 84 :   0.2857 0.1429 0.2857  plane waves:     710
 k-point 85 :   0.4286 0.1429 0.2857  plane waves:     722
 k-point 86 :  -0.4286 0.1429 0.2857  plane waves:     721
 k-point 87 :  -0.2857 0.1429 0.2857  plane waves:     721
 k-point 88 :  -0.1429 0.1429 0.2857  plane waves:     722
 k-point 89 :  -0.0000 0.2857 0.2857  plane waves:     721
 k-point 90 :   0.1429 0.2857 0.2857  plane waves:     710
 k-point 91 :   0.2857 0.2857 0.2857  plane waves:     718
 k-point 92 :   0.4286 0.2857 0.2857  plane waves:     722
 k-point 93 :  -0.4286 0.2857 0.2857  plane waves:     706
 k-point 94 :  -0.2857 0.2857 0.2857  plane waves:     718
 k-point 95 :  -0.1429 0.2857 0.2857  plane waves:     722
 k-point 96 :  -0.0000 0.4286 0.2857  plane waves:     722
 k-point 97 :   0.1429 0.4286 0.2857  plane waves:     722
 k-point 98 :   0.2857 0.4286 0.2857  plane waves:     722
 k-point 99 :   0.4286 0.4286 0.2857  plane waves:     714
 k-point ** :  -0.4286 0.4286 0.2857  plane waves:     721
 k-point ** :  -0.2857 0.4286 0.2857  plane waves:     715
 k-point ** :  -0.1429 0.4286 0.2857  plane waves:     721
 k-point ** :   0.0000-0.4286 0.2857  plane waves:     718
 k-point ** :   0.1429-0.4286 0.2857  plane waves:     721
 k-point ** :   0.2857-0.4286 0.2857  plane waves:     706
 k-point ** :   0.4286-0.4286 0.2857  plane waves:     721
 k-point ** :  -0.4286-0.4286 0.2857  plane waves:     718
 k-point ** :  -0.2857-0.4286 0.2857  plane waves:     715
 k-point ** :  -0.1429-0.4286 0.2857  plane waves:     715
 k-point ** :  -0.0000-0.2857 0.2857  plane waves:     706
 k-point ** :   0.1429-0.2857 0.2857  plane waves:     721
 k-point ** :   0.2857-0.2857 0.2857  plane waves:     718
 k-point ** :   0.4286-0.2857 0.2857  plane waves:     715
 k-point ** :  -0.4286-0.2857 0.2857  plane waves:     715
 k-point ** :  -0.2857-0.2857 0.2857  plane waves:     718
 k-point ** :  -0.1429-0.2857 0.2857  plane waves:     721
 k-point ** :   0.0000-0.1429 0.2857  plane waves:     722
 k-point ** :   0.1429-0.1429 0.2857  plane waves:     722
 k-point ** :   0.2857-0.1429 0.2857  plane waves:     722
 k-point ** :   0.4286-0.1429 0.2857  plane waves:     721
 k-point ** :  -0.4286-0.1429 0.2857  plane waves:     715
 k-point ** :  -0.2857-0.1429 0.2857  plane waves:     721
 k-point ** :  -0.1429-0.1429 0.2857  plane waves:     714
 k-point ** :  -0.0000 0.0000 0.4286  plane waves:     724
[...]
      4     -47.9151     -47.9249     -47.9231     -47.9244       0.8518       2.0000
      5     -47.9144     -47.9241     -47.9221     -47.9234       0.8511       2.0000
      6     -19.9739     -19.9837     -19.9818     -19.9835       0.8303       2.0000
      7      -6.5711      -6.5764      -6.5779      -6.5790       0.8646       2.0000
      8      -5.7033      -5.7082      -5.7082      -5.7090       0.8670       2.0000
      9      -5.1521      -5.1570      -5.1571      -5.1579       0.8693       2.0000
     10       6.9907       6.9992       6.9986       6.9995       0.8890       0.0000
     11       7.3966       7.4053       7.4045       7.4055       0.8883       0.0000
     12       8.8114       8.8208       8.8199       8.8211       0.8818       0.0000
     13      10.3748      10.3845      10.3832      10.3843       0.8786       0.0000
     14      12.1838      12.1945      12.1937      12.1951       0.8700       0.0000
     15      13.3456      13.3568      13.3563      13.3579       0.8659       0.0000
     16      14.4180      14.4295      14.4290      14.4307       0.8625       0.0000
     17      16.0061      16.0187      16.0175      16.0194       0.8531       0.0000
     18      17.1914      17.2043      17.2024      17.2044       0.8467       0.0000
     19      17.5013      17.5139      17.5131      17.5153       0.8498       0.0000
     20      19.4340      19.4477      19.4467      19.4491       0.8404       0.0000
 

 k-point 164 :      -0.2857   -0.2857    0.4286
  band No. DFT-energies  QP-energies  QP-e(diag)   sigma(DFT)    Z            occupation

      1     -47.9231     -47.9326     -47.9305     -47.9318       0.8514       2.0000
      2     -47.9227     -47.9322     -47.9298     -47.9310       0.8538       2.0000
      3     -47.9160     -47.9261     -47.9235     -47.9248       0.8483       2.0000
      4     -47.9154     -47.9251     -47.9235     -47.9249       0.8519       2.0000
      5     -47.9147     -47.9243     -47.9224     -47.9238       0.8487       2.0000
      6     -19.9812     -19.9910     -19.9892     -19.9908       0.8293       2.0000
      7      -6.4227      -6.4278      -6.4293      -6.4303       0.8664       2.0000
      8      -5.9208      -5.9258      -5.9259      -5.9267       0.8668       2.0000
      9      -5.0002      -5.0051      -5.0051      -5.0058       0.8702       2.0000
     10       6.9335       6.9422       6.9414       6.9424       0.8900       0.0000
     11       7.8379       7.8466       7.8461       7.8472       0.8852       0.0000
     12       8.7737       8.7830       8.7822       8.7833       0.8819       0.0000
     13      10.1933      10.2028      10.2013      10.2024       0.8805       0.0000
     14      11.7679      11.7783      11.7768      11.7780       0.8739       0.0000
     15      12.4211      12.4320      12.4314      12.4329       0.8696       0.0000
     16      15.2983      15.3101      15.3094      15.3112       0.8595       0.0000
     17      15.3646      15.3763      15.3763      15.3783       0.8585       0.0000
     18      17.0027      17.0157      17.0130      17.0149       0.8468       0.0000
     19      19.2900      19.3036      19.3026      19.3050       0.8418       0.0000
     20      19.3333      19.3472      19.3462      19.3487       0.8383       0.0000
 

 k-point 165 :      -0.1429   -0.2857    0.4286
  band No. DFT-energies  QP-energies  QP-e(diag)   sigma(DFT)    Z            occupation

      1     -47.9232     -47.9327     -47.9304     -47.9317       0.8490       2.0000
      2     -47.9225     -47.9317     -47.9299     -47.9312       0.8556       2.0000
      3     -47.9163     -47.9260     -47.9245     -47.9260       0.8478       2.0000
      4     -47.9158     -47.9257     -47.9234     -47.9247       0.8501       2.0000
      5     -47.9145     -47.9244     -47.9225     -47.9239       0.8504       2.0000
      6     -19.9740     -19.9838     -19.9819     -19.9835       0.8298       2.0000
      7      -6.5718      -6.5771      -6.5780      -6.5789       0.8646       2.0000
      8      -5.7026      -5.7076      -5.7082      -5.7090       0.8672       2.0000
      9      -5.1521      -5.1570      -5.1571      -5.1579       0.8694       2.0000
     10       6.9907       6.9993       6.9985       6.9995       0.8889       0.0000
     11       7.3965       7.4052       7.4044       7.4054       0.8885       0.0000
     12       8.8114       8.8208       8.8199       8.8211       0.8818       0.0000
     13      10.3750      10.3846      10.3833      10.3845       0.8785       0.0000
     14      12.1837      12.1945      12.1936      12.1951       0.8701       0.0000
     15      13.3455      13.3567      13.3562      13.3578       0.8660       0.0000
     16      14.4182      14.4297      14.4291      14.4309       0.8626       0.0000
     17      16.0055      16.0181      16.0169      16.0188       0.8531       0.0000
     18      17.1913      17.2042      17.2023      17.2043       0.8467       0.0000
     19      17.5008      17.5134      17.5127      17.5148       0.8498       0.0000
     20      19.4342      19.4479      19.4469      19.4493       0.8403       0.0000
 

 k-point 166 :      -0.0000   -0.1429    0.4286
  band No. DFT-energies  QP-energies  QP-e(diag)   sigma(DFT)    Z            occupation

      1     -47.9230     -47.9324     -47.9306     -47.9319       0.8518       2.0000
      2     -47.9226     -47.9319     -47.9301     -47.9314       0.8551       2.0000
      3     -47.9167     -47.9267     -47.9249     -47.9264       0.8469       2.0000
      4     -47.9157     -47.9254     -47.9237     -47.9251       0.8513       2.0000
      5     -47.9147     -47.9246     -47.9229     -47.9243       0.8493       2.0000
      6     -19.9951     -20.0049     -20.0031     -20.0048       0.8283       2.0000
      7      -6.8426      -6.8480      -6.8485      -6.8494       0.8623       2.0000
      8      -5.2769      -5.2818      -5.2822      -5.2830       0.8678       2.0000
      9      -4.9585      -4.9633      -4.9640      -4.9649       0.8708       2.0000
     10       6.2472       6.2560       6.2554       6.2565       0.8907       0.0000
     11       7.8783       7.8868       7.8860       7.8870       0.8875       0.0000
     12       9.4573       9.4666       9.4649       9.4659       0.8831       0.0000
     13       9.8291       9.8387       9.8380       9.8393       0.8769       0.0000
     14      12.3297      12.3402      12.3397      12.3411       0.8709       0.0000
     15      13.1709      13.1822      13.1819      13.1836       0.8660       0.0000
     16      13.2745      13.2857      13.2848      13.2864       0.8662       0.0000
     17      15.7806      15.7929      15.7916      15.7934       0.8555       0.0000
     18      16.4029      16.4158      16.4150      16.4171       0.8498       0.0000
     19      17.1764      17.1889      17.1877      17.1897       0.8501       0.0000
     20      19.0229      19.0363      19.0359      19.0383       0.8430       0.0000
 

 k-point 167 :       0.1429   -0.1429    0.4286
  band No. DFT-energies  QP-energies  QP-e(diag)   sigma(DFT)    Z            occupation

      1     -47.9232     -47.9326     -47.9301     -47.9314       0.8486       2.0000
      2     -47.9227     -47.9319     -47.9300     -47.9313       0.8544       2.0000
      3     -47.9167     -47.9266     -47.9248     -47.9263       0.8459       2.0000
      4     -47.9159     -47.9256     -47.9238     -47.9252       0.8488       2.0000
      5     -47.9144     -47.9243     -47.9224     -47.9238       0.8522       2.0000
      6     -19.9740     -19.9838     -19.9820     -19.9836       0.8296       2.0000
      7      -6.5722      -6.5774      -6.5780      -6.5789       0.8644       2.0000
      8      -5.7032      -5.7082      -5.7083      -5.7091       0.8671       2.0000
      9      -5.1514      -5.1563      -5.1571      -5.1580       0.8695       2.0000
     10       6.9907       6.9992       6.9985       6.9995       0.8890       0.0000
     11       7.3967       7.4054       7.4046       7.4056       0.8884       0.0000
     12       8.8114       8.8207       8.8199       8.8210       0.8819       0.0000
     13      10.3747      10.3844      10.3830      10.3842       0.8787       0.0000
     14      12.1838      12.1945      12.1937      12.1951       0.8699       0.0000
     15      13.3453      13.3565      13.3560      13.3577       0.8660       0.0000
     16      14.4185      14.4300      14.4294      14.4312       0.8624       0.0000
     17      16.0060      16.0186      16.0174      16.0194       0.8531       0.0000
     18      17.1906      17.2036      17.2017      17.2037       0.8469       0.0000
     19      17.5012      17.5138      17.5131      17.5152       0.8498       0.0000
     20      19.4337      19.4474      19.4464      19.4489       0.8404       0.0000
 

 k-point 168 :       0.2857   -0.1429    0.4286
  band No. DFT-energies  QP-energies  QP-e(diag)   sigma(DFT)    Z            occupation

      1     -47.9227     -47.9320     -47.9300     -47.9312       0.8537       2.0000
      2     -47.9224     -47.9318     -47.9299     -47.9311       0.8566       2.0000
      3     -47.9168     -47.9265     -47.9252     -47.9268       0.8454       2.0000
      4     -47.9152     -47.9249     -47.9230     -47.9243       0.8519       2.0000
      5     -47.9140     -47.9238     -47.9220     -47.9234       0.8532       2.0000
      6     -19.9483     -19.9580     -19.9562     -19.9578       0.8315       2.0000
      7      -6.5610      -6.5663      -6.5667      -6.5676       0.8645       2.0000
      8      -5.7110      -5.7161      -5.7170      -5.7179       0.8665       2.0000
      9      -5.4366      -5.4416      -5.4419      -5.4427       0.8671       2.0000
     10       6.1079       6.1159       6.1152       6.1161       0.8922       0.0000
     11       7.2817       7.2905       7.2895       7.2904       0.8878       0.0000
     12       9.4268       9.4365       9.4358       9.4370       0.8791       0.0000
     13      11.2234      11.2336      11.2328      11.2342       0.8728       0.0000
     14      13.0012      13.0123      13.0120      13.0136       0.8654       0.0000
     15      14.0738      14.0855      14.0848      14.0866       0.8632       0.0000
     16      15.9478      15.9602      15.9588      15.9607       0.8556       0.0000
     17      16.2552      16.2677      16.2664      16.2684       0.8515       0.0000
     18      16.8362      16.8486      16.8474      16.8494       0.8513       0.0000
     19      17.5556      17.5685      17.5674      17.5695       0.8467       0.0000
     20      17.5581      17.5709      17.5707      17.5729       0.8469       0.0000
 

 k-point 169 :       0.4286   -0.1429    0.4286
  band No. DFT-energies  QP-energies  QP-e(diag)   sigma(DFT)    Z            occupation

      1     -47.9227     -47.9318     -47.9301     -47.9313       0.8545       2.0000
      2     -47.9223     -47.9318     -47.9295     -47.9307       0.8566       2.0000
      3     -47.9169     -47.9266     -47.9255     -47.9271       0.8449       2.0000
      4     -47.9154     -47.9250     -47.9225     -47.9237       0.8509       2.0000
      5     -47.9135     -47.9233     -47.9216     -47.9229       0.8551       2.0000
      6     -19.9376     -19.9473     -19.9453     -19.9469       0.8333       2.0000
      7      -6.6858      -6.6912      -6.6918      -6.6927       0.8631       2.0000
      8      -5.6978      -5.7029      -5.7038      -5.7047       0.8672       2.0000
      9      -5.3932      -5.3982      -5.3984      -5.3992       0.8684       2.0000
     10       5.6022       5.6102       5.6095       5.6104       0.8937       0.0000
     11       6.8708       6.8795       6.8784       6.8794       0.8889       0.0000
     12      10.8071      10.8174      10.8170      10.8185       0.8706       0.0000
     13      12.2147      12.2253      12.2243      12.2257       0.8698       0.0000
     14      12.2328      12.2436      12.2436      12.2452       0.8690       0.0000
     15      14.4350      14.4469      14.4459      14.4476       0.8609       0.0000
     16      16.1727      16.1854      16.1840      16.1860       0.8522       0.0000
     17      16.3791      16.3918      16.3904      16.3924       0.8500       0.0000
     18      16.8899      16.9019      16.9013      16.9032       0.8556       0.0000
     19      17.5226      17.5359      17.5344      17.5366       0.8425       0.0000
     20      18.0069      18.0198      18.0191      18.0213       0.8470       0.0000
 

 k-point 170 :      -0.4286   -0.1429    0.4286
  band No. DFT-energies  QP-energies  QP-e(diag)   sigma(DFT)    Z            occupation

      1     -47.9224     -47.9318     -47.9301     -47.9313       0.8576       2.0000
      2     -47.9222     -47.9317     -47.9297     -47.9309       0.8584       2.0000
      3     -47.9167     -47.9264     -47.9251     -47.9266       0.8461       2.0000
      4     -47.9149     -47.9247     -47.9226     -47.9239       0.8538       2.0000
      5     -47.9139     -47.9236     -47.9217     -47.9231       0.8540       2.0000
      6     -19.9483     -19.9580     -19.9562     -19.9577       0.8316       2.0000
      7      -6.5605      -6.5658      -6.5667      -6.5677       0.8647       2.0000
      8      -5.7115      -5.7166      -5.7167      -5.7175       0.8665       2.0000
      9      -5.4364      -5.4414      -5.4420      -5.4429       0.8672       2.0000
     10       6.1079       6.1159       6.1152       6.1161       0.8921       0.0000
     11       7.2817       7.2905       7.2895       7.2905       0.8878       0.0000
     12       9.4266       9.4363       9.4356       9.4368       0.8792       0.0000
     13      11.2236      11.2338      11.2331      11.2345       0.8727       0.0000
     14      13.0011      13.0123      13.0119      13.0136       0.8655       0.0000
     15      14.0739      14.0856      14.0849      14.0867       0.8631       0.0000
     16      15.9484      15.9607      15.9593      15.9612       0.8555       0.0000
     17      16.2550      16.2675      16.2662      16.2682       0.8516       0.0000
     18      16.8358      16.8482      16.8471      16.8490       0.8513       0.0000
     19      17.5559      17.5689      17.5677      17.5698       0.8467       0.0000
     20      17.5581      17.5710      17.5707      17.5730       0.8469       0.0000
 

 k-point 171 :      -0.2857   -0.1429    0.4286
  band No. DFT-energies  QP-energies  QP-e(diag)   sigma(DFT)    Z            occupation

      1     -47.9232     -47.9326     -47.9304     -47.9317       0.8493       2.0000
      2     -47.9226     -47.9318     -47.9300     -47.9312       0.8556       2.0000
      3     -47.9162     -47.9260     -47.9245     -47.9260       0.8478       2.0000
      4     -47.9159     -47.9257     -47.9234     -47.9247       0.8496       2.0000
      5     -47.9145     -47.9244     -47.9225     -47.9239       0.8500       2.0000
      6     -19.9740     -19.9837     -19.9819     -19.9835       0.8298       2.0000
      7      -6.5719      -6.5771      -6.5779      -6.5789       0.8645       2.0000
      8      -5.7027      -5.7077      -5.7081      -5.7090       0.8671       2.0000
      9      -5.1520      -5.1569      -5.1572      -5.1579       0.8695       2.0000
     10       6.9907       6.9993       6.9985       6.9995       0.8890       0.0000
     11       7.3965       7.4052       7.4044       7.4054       0.8884       0.0000
     12       8.8114       8.8208       8.8200       8.8211       0.8817       0.0000
     13      10.3750      10.3847      10.3833      10.3845       0.8785       0.0000
     14      12.1837      12.1945      12.1936      12.1951       0.8701       0.0000
     15      13.3455      13.3567      13.3562      13.3578       0.8660       0.0000
     16      14.4182      14.4297      14.4291      14.4309       0.8626       0.0000
     17      16.0055      16.0181      16.0169      16.0188       0.8531       0.0000
     18      17.1912      17.2042      17.2023      17.2043       0.8468       0.0000
     19      17.5008      17.5134      17.5127      17.5148       0.8497       0.0000
     20      19.4341      19.4479      19.4469      19.4493       0.8404       0.0000
 

 k-point 172 :      -0.1429   -0.1429    0.4286
  band No. DFT-energies  QP-energies  QP-e(diag)   sigma(DFT)    Z            occupation

      1     -47.9234     -47.9326     -47.9308     -47.9321       0.8480       2.0000
      2     -47.9223     -47.9317     -47.9300     -47.9313       0.8579       2.0000
      3     -47.9161     -47.9262     -47.9246     -47.9261       0.8495       2.0000
      4     -47.9160     -47.9256     -47.9237     -47.9250       0.8492       2.0000
      5     -47.9151     -47.9247     -47.9229     -47.9244       0.8463       2.0000
      6     -19.9951     -20.0049     -20.0031     -20.0048       0.8287       2.0000
      7      -6.8426      -6.8479      -6.8485      -6.8494       0.8627       2.0000
      8      -5.2762      -5.2811      -5.2820      -5.2829       0.8678       2.0000
      9      -4.9592      -4.9641      -4.9641      -4.9648       0.8707       2.0000
     10       6.2471       6.2560       6.2554       6.2564       0.8909       0.0000
     11       7.8782       7.8868       7.8859       7.8869       0.8877       0.0000
     12       9.4575       9.4668       9.4651       9.4661       0.8830       0.0000
     13       9.8292       9.8388       9.8381       9.8394       0.8766       0.0000
     14      12.3297      12.3402      12.3397      12.3412       0.8706       0.0000
     15      13.1713      13.1826      13.1822      13.1839       0.8659       0.0000
     16      13.2737      13.2849      13.2840      13.2856       0.8663       0.0000
     17      15.7814      15.7937      15.7924      15.7942       0.8555       0.0000
     18      16.4018      16.4147      16.4139      16.4160       0.8497       0.0000
     19      17.1768      17.1894      17.1881      17.1901       0.8500       0.0000
     20      19.0225      19.0359      19.0355      19.0379       0.8429       0.0000
 


--------------------------------------------------------------------------------------------------------



IMPORTANT INFORMATION: All symmetrisations will be switched off!
NOSYMM: (Re-)initialisation of all symmetry stuff for point group C_1.

   GW_DIAG:  cpu time    2.4891: real time    2.4960
    GWLOOP:  cpu time12990.7681: real time12991.3198
 writing wavefunctions
    --------------------------------------------
   GWTOTAL:  cpu time12992.3973: real time12993.2403
    4ORBIT:  cpu time    0.0000: real time    0.0000

 total amount of memory used by VASP MPI-rank0   307365. kBytes
=======================================================================

   base      :      30000. kBytes
   nonl-proj :      36973. kBytes
   fftplans  :      25720. kBytes
   grid      :       7727. kBytes
   one-center:         65. kBytes
   HF        :        547. kBytes
   nonlr-proj:        286. kBytes
   wavefun   :     206047. kBytes
   2eintegral:          0. kBytes
   fockhandle:          0. kBytes
   response  :          0. kBytes
   cacher    :          0. kBytes
 
  
  
 General timing and accounting informations for this job:
 ========================================================
  
                  Total CPU time used (sec):    13000.859
                            User time (sec):    12876.745
                          System time (sec):      124.115
                         Elapsed time (sec):    13001.622
  
                   Maximum memory used (kb):     3488968.
                   Average memory used (kb):           0.
  
                          Minor page faults:       961364
                          Major page faults:            0
                 Voluntary context switches:        28586
