   1   1   0   0
  0.6083477E+02  0.4414576E-09  0.4414576E-09  0.4414576E-09  0.1000000E-15
  1.000000000000000E-004
  CAR 
 Og_FCC                                  
     14.41363772    -46.53705809  301     -0.59547112      1.00000000
    -46.537  0.0000E+00  0.0000E+00
    -46.334  0.0000E+00  0.0000E+00
    -46.131  0.0000E+00  0.0000E+00
    -45.928  0.0000E+00  0.0000E+00
    -45.724  0.0000E+00  0.0000E+00
    -45.521  0.0000E+00  0.0000E+00
    -45.318  0.0000E+00  0.0000E+00
    -45.115  0.0000E+00  0.0000E+00
    -44.912  0.0000E+00  0.0000E+00
    -44.709  0.0000E+00  0.0000E+00
    -44.505  0.0000E+00  0.0000E+00
    -44.302  0.0000E+00  0.0000E+00
    -44.099  0.0000E+00  0.0000E+00
    -43.896  0.3211E-02  0.6524E-03
    -43.693  0.1928E+02  0.3917E+01
    -43.490  0.4069E+00  0.4000E+01
    -43.286  0.0000E+00  0.4000E+01
    -43.083  0.0000E+00  0.4000E+01
    -42.880  0.0000E+00  0.4000E+01
    -42.677  0.0000E+00  0.4000E+01
    -42.474  0.0000E+00  0.4000E+01
    -42.271  0.0000E+00  0.4000E+01
    -42.067  0.0000E+00  0.4000E+01
    -41.864  0.0000E+00  0.4000E+01
    -41.661  0.0000E+00  0.4000E+01
    -41.458  0.0000E+00  0.4000E+01
    -41.255  0.0000E+00  0.4000E+01
    -41.051  0.0000E+00  0.4000E+01
    -40.848  0.0000E+00  0.4000E+01
    -40.645  0.0000E+00  0.4000E+01
    -40.442  0.0000E+00  0.4000E+01
    -40.239  0.0000E+00  0.4000E+01
    -40.036  0.0000E+00  0.4000E+01
    -39.832  0.0000E+00  0.4000E+01
    -39.629  0.1875E-11  0.4000E+01
    -39.426  0.1118E+01  0.4227E+01
    -39.223  0.2841E+02  0.1000E+02
    -39.020  0.1692E-02  0.1000E+02
    -38.817  0.0000E+00  0.1000E+02
    -38.613  0.0000E+00  0.1000E+02
    -38.410  0.0000E+00  0.1000E+02
    -38.207  0.0000E+00  0.1000E+02
    -38.004  0.0000E+00  0.1000E+02
    -37.801  0.0000E+00  0.1000E+02
    -37.598  0.0000E+00  0.1000E+02
    -37.394  0.0000E+00  0.1000E+02
    -37.191  0.0000E+00  0.1000E+02
    -36.988  0.0000E+00  0.1000E+02
    -36.785  0.0000E+00  0.1000E+02
    -36.582  0.0000E+00  0.1000E+02
    -36.379  0.0000E+00  0.1000E+02
    -36.175  0.0000E+00  0.1000E+02
    -35.972  0.0000E+00  0.1000E+02
    -35.769  0.0000E+00  0.1000E+02
    -35.566  0.0000E+00  0.1000E+02
    -35.363  0.0000E+00  0.1000E+02
    -35.160  0.0000E+00  0.1000E+02
    -34.956  0.0000E+00  0.1000E+02
    -34.753  0.0000E+00  0.1000E+02
    -34.550  0.0000E+00  0.1000E+02
    -34.347  0.0000E+00  0.1000E+02
    -34.144  0.0000E+00  0.1000E+02
    -33.941  0.0000E+00  0.1000E+02
    -33.737  0.0000E+00  0.1000E+02
    -33.534  0.0000E+00  0.1000E+02
    -33.331  0.0000E+00  0.1000E+02
    -33.128  0.0000E+00  0.1000E+02
    -32.925  0.0000E+00  0.1000E+02
    -32.722  0.0000E+00  0.1000E+02
    -32.518  0.0000E+00  0.1000E+02
    -32.315  0.0000E+00  0.1000E+02
    -32.112  0.0000E+00  0.1000E+02
    -31.909  0.0000E+00  0.1000E+02
    -31.706  0.0000E+00  0.1000E+02
    -31.503  0.0000E+00  0.1000E+02
    -31.299  0.0000E+00  0.1000E+02
    -31.096  0.0000E+00  0.1000E+02
    -30.893  0.0000E+00  0.1000E+02
    -30.690  0.0000E+00  0.1000E+02
    -30.487  0.0000E+00  0.1000E+02
    -30.284  0.0000E+00  0.1000E+02
    -30.080  0.0000E+00  0.1000E+02
    -29.877  0.0000E+00  0.1000E+02
    -29.674  0.0000E+00  0.1000E+02
    -29.471  0.0000E+00  0.1000E+02
    -29.268  0.0000E+00  0.1000E+02
    -29.065  0.0000E+00  0.1000E+02
    -28.861  0.0000E+00  0.1000E+02
    -28.658  0.0000E+00  0.1000E+02
    -28.455  0.0000E+00  0.1000E+02
    -28.252  0.0000E+00  0.1000E+02
    -28.049  0.0000E+00  0.1000E+02
    -27.846  0.0000E+00  0.1000E+02
    -27.642  0.0000E+00  0.1000E+02
    -27.439  0.0000E+00  0.1000E+02
    -27.236  0.0000E+00  0.1000E+02
    -27.033  0.0000E+00  0.1000E+02
    -26.830  0.0000E+00  0.1000E+02
    -26.626  0.0000E+00  0.1000E+02
    -26.423  0.0000E+00  0.1000E+02
    -26.220  0.0000E+00  0.1000E+02
    -26.017  0.0000E+00  0.1000E+02
    -25.814  0.0000E+00  0.1000E+02
    -25.611  0.0000E+00  0.1000E+02
    -25.407  0.0000E+00  0.1000E+02
    -25.204  0.0000E+00  0.1000E+02
    -25.001  0.0000E+00  0.1000E+02
    -24.798  0.0000E+00  0.1000E+02
    -24.595  0.0000E+00  0.1000E+02
    -24.392  0.0000E+00  0.1000E+02
    -24.188  0.0000E+00  0.1000E+02
    -23.985  0.0000E+00  0.1000E+02
    -23.782  0.0000E+00  0.1000E+02
    -23.579  0.0000E+00  0.1000E+02
    -23.376  0.0000E+00  0.1000E+02
    -23.173  0.0000E+00  0.1000E+02
    -22.969  0.0000E+00  0.1000E+02
    -22.766  0.0000E+00  0.1000E+02
    -22.563  0.0000E+00  0.1000E+02
    -22.360  0.0000E+00  0.1000E+02
    -22.157  0.0000E+00  0.1000E+02
    -21.954  0.0000E+00  0.1000E+02
    -21.750  0.0000E+00  0.1000E+02
    -21.547  0.0000E+00  0.1000E+02
    -21.344  0.0000E+00  0.1000E+02
    -21.141  0.0000E+00  0.1000E+02
    -20.938  0.0000E+00  0.1000E+02
    -20.735  0.0000E+00  0.1000E+02
    -20.531  0.0000E+00  0.1000E+02
    -20.328  0.0000E+00  0.1000E+02
    -20.125  0.0000E+00  0.1000E+02
    -19.922  0.0000E+00  0.1000E+02
    -19.719  0.0000E+00  0.1000E+02
    -19.516  0.0000E+00  0.1000E+02
    -19.312  0.0000E+00  0.1000E+02
    -19.109  0.0000E+00  0.1000E+02
    -18.906  0.0000E+00  0.1000E+02
    -18.703  0.0000E+00  0.1000E+02
    -18.500  0.0000E+00  0.1000E+02
    -18.297  0.0000E+00  0.1000E+02
    -18.093  0.0000E+00  0.1000E+02
    -17.890  0.0000E+00  0.1000E+02
    -17.687  0.0000E+00  0.1000E+02
    -17.484  0.0000E+00  0.1000E+02
    -17.281  0.1908E-10  0.1000E+02
    -17.078  0.4273E-01  0.1001E+02
    -16.874  0.5517E+01  0.1113E+02
    -16.671  0.4284E+01  0.1200E+02
    -16.468  0.3394E-05  0.1200E+02
    -16.265  0.0000E+00  0.1200E+02
    -16.062  0.0000E+00  0.1200E+02
    -15.859  0.0000E+00  0.1200E+02
    -15.655  0.0000E+00  0.1200E+02
    -15.452  0.0000E+00  0.1200E+02
    -15.249  0.0000E+00  0.1200E+02
    -15.046  0.0000E+00  0.1200E+02
    -14.843  0.0000E+00  0.1200E+02
    -14.640  0.0000E+00  0.1200E+02
    -14.436  0.0000E+00  0.1200E+02
    -14.233  0.0000E+00  0.1200E+02
    -14.030  0.0000E+00  0.1200E+02
    -13.827  0.0000E+00  0.1200E+02
    -13.624  0.0000E+00  0.1200E+02
    -13.421  0.0000E+00  0.1200E+02
    -13.217  0.0000E+00  0.1200E+02
    -13.014  0.0000E+00  0.1200E+02
    -12.811  0.0000E+00  0.1200E+02
    -12.608  0.0000E+00  0.1200E+02
    -12.405  0.0000E+00  0.1200E+02
    -12.201  0.0000E+00  0.1200E+02
    -11.998  0.0000E+00  0.1200E+02
    -11.795  0.0000E+00  0.1200E+02
    -11.592  0.0000E+00  0.1200E+02
    -11.389  0.0000E+00  0.1200E+02
    -11.186  0.0000E+00  0.1200E+02
    -10.982  0.0000E+00  0.1200E+02
    -10.779  0.0000E+00  0.1200E+02
    -10.576  0.0000E+00  0.1200E+02
    -10.373  0.0000E+00  0.1200E+02
    -10.170  0.0000E+00  0.1200E+02
     -9.967  0.0000E+00  0.1200E+02
     -9.763  0.0000E+00  0.1200E+02
     -9.560  0.0000E+00  0.1200E+02
     -9.357  0.0000E+00  0.1200E+02
     -9.154  0.0000E+00  0.1200E+02
     -8.951  0.0000E+00  0.1200E+02
     -8.748  0.0000E+00  0.1200E+02
     -8.544  0.0000E+00  0.1200E+02
     -8.341  0.0000E+00  0.1200E+02
     -8.138  0.0000E+00  0.1200E+02
     -7.935  0.0000E+00  0.1200E+02
     -7.732  0.0000E+00  0.1200E+02
     -7.529  0.0000E+00  0.1200E+02
     -7.325  0.0000E+00  0.1200E+02
     -7.122  0.0000E+00  0.1200E+02
     -6.919  0.0000E+00  0.1200E+02
     -6.716  0.0000E+00  0.1200E+02
     -6.513  0.0000E+00  0.1200E+02
     -6.310  0.0000E+00  0.1200E+02
     -6.106  0.0000E+00  0.1200E+02
     -5.903  0.0000E+00  0.1200E+02
     -5.700  0.5927E-15  0.1200E+02
     -5.497  0.7433E-02  0.1200E+02
     -5.294  0.5673E+01  0.1315E+02
     -5.091  0.2571E+01  0.1368E+02
     -4.887  0.1154E+01  0.1391E+02
     -4.684  0.4170E+00  0.1400E+02
     -4.481  0.2203E-01  0.1400E+02
     -4.278  0.8784E-08  0.1400E+02
     -4.075  0.0000E+00  0.1400E+02
     -3.872  0.0000E+00  0.1400E+02
     -3.668  0.0000E+00  0.1400E+02
     -3.465  0.0000E+00  0.1400E+02
     -3.262  0.0000E+00  0.1400E+02
     -3.059  0.0000E+00  0.1400E+02
     -2.856  0.1227E-13  0.1400E+02
     -2.653  0.2347E-01  0.1400E+02
     -2.449  0.5073E+01  0.1504E+02
     -2.246  0.2669E+01  0.1558E+02
     -2.043  0.5390E+00  0.1569E+02
     -1.840  0.2368E+01  0.1617E+02
     -1.637  0.3449E+01  0.1687E+02
     -1.434  0.1478E+01  0.1717E+02
     -1.230  0.2532E+01  0.1768E+02
     -1.027  0.1240E+01  0.1794E+02
     -0.824  0.3137E+00  0.1800E+02
     -0.621  0.1736E-02  0.1800E+02
     -0.418  0.0000E+00  0.1800E+02
     -0.215  0.0000E+00  0.1800E+02
     -0.011  0.0000E+00  0.1800E+02
      0.192  0.0000E+00  0.1800E+02
      0.395  0.0000E+00  0.1800E+02
      0.598  0.0000E+00  0.1800E+02
      0.801  0.0000E+00  0.1800E+02
      1.004  0.0000E+00  0.1800E+02
      1.208  0.0000E+00  0.1800E+02
      1.411  0.0000E+00  0.1800E+02
      1.614  0.0000E+00  0.1800E+02
      1.817  0.0000E+00  0.1800E+02
      2.020  0.0000E+00  0.1800E+02
      2.223  0.0000E+00  0.1800E+02
      2.427  0.0000E+00  0.1800E+02
      2.630  0.1311E-08  0.1800E+02
      2.833  0.1763E-01  0.1800E+02
      3.036  0.1107E-01  0.1801E+02
      3.239  0.6755E-15  0.1801E+02
      3.443  0.3419E-02  0.1801E+02
      3.646  0.2262E+00  0.1805E+02
      3.849  0.1702E+00  0.1809E+02
      4.052  0.1958E-02  0.1809E+02
      4.255  0.2876E-03  0.1809E+02
      4.458  0.4797E+00  0.1818E+02
      4.662  0.5855E+00  0.1830E+02
      4.865  0.9473E+00  0.1850E+02
      5.068  0.6122E+00  0.1862E+02
      5.271  0.3001E+01  0.1923E+02
      5.474  0.9812E+00  0.1943E+02
      5.677  0.1147E+01  0.1966E+02
      5.881  0.1091E+01  0.1988E+02
      6.084  0.1852E+01  0.2026E+02
      6.287  0.8433E+00  0.2043E+02
      6.490  0.1326E+01  0.2070E+02
      6.693  0.1511E+01  0.2101E+02
      6.896  0.2382E+01  0.2149E+02
      7.100  0.1653E+01  0.2183E+02
      7.303  0.8151E+00  0.2199E+02
      7.506  0.7318E+00  0.2214E+02
      7.709  0.2957E+01  0.2274E+02
      7.912  0.2203E+01  0.2319E+02
      8.115  0.2051E+01  0.2361E+02
      8.319  0.1952E+01  0.2400E+02
      8.522  0.1740E+01  0.2436E+02
      8.725  0.1686E+01  0.2470E+02
      8.928  0.1235E+01  0.2495E+02
      9.131  0.1713E+01  0.2530E+02
      9.334  0.1585E+01  0.2562E+02
      9.538  0.3880E+00  0.2570E+02
      9.741  0.8569E+00  0.2587E+02
      9.944  0.2860E+01  0.2646E+02
     10.147  0.7196E+00  0.2660E+02
     10.350  0.3899E+00  0.2668E+02
     10.553  0.6398E+00  0.2681E+02
     10.757  0.2195E+01  0.2726E+02
     10.960  0.4945E+00  0.2736E+02
     11.163  0.1451E+01  0.2765E+02
     11.366  0.8347E+00  0.2782E+02
     11.569  0.6481E+00  0.2795E+02
     11.772  0.2304E+00  0.2800E+02
     11.976  0.2901E-04  0.2800E+02
     12.179  0.0000E+00  0.2800E+02
     12.382  0.0000E+00  0.2800E+02
     12.585  0.0000E+00  0.2800E+02
     12.788  0.0000E+00  0.2800E+02
     12.991  0.0000E+00  0.2800E+02
     13.195  0.0000E+00  0.2800E+02
     13.398  0.0000E+00  0.2800E+02
     13.601  0.0000E+00  0.2800E+02
     13.804  0.0000E+00  0.2800E+02
     14.007  0.0000E+00  0.2800E+02
     14.210  0.0000E+00  0.2800E+02
     14.414  0.0000E+00  0.2800E+02
