   1   1   0   0
  0.1860393E+02  0.2974221E-09  0.2974221E-09  0.2974221E-09  0.1000000E-15
  1.000000000000000E-004
  CAR 
 Og_FCC                                  
     32.61928063    -40.65439661  301    -11.03961873      1.00000000
    -40.654  0.0000E+00  0.0000E+00
    -40.410  0.0000E+00  0.0000E+00
    -40.166  0.0000E+00  0.0000E+00
    -39.922  0.0000E+00  0.0000E+00
    -39.677  0.0000E+00  0.0000E+00
    -39.433  0.0000E+00  0.0000E+00
    -39.189  0.0000E+00  0.0000E+00
    -38.945  0.0000E+00  0.0000E+00
    -38.700  0.0000E+00  0.0000E+00
    -38.456  0.0000E+00  0.0000E+00
    -38.212  0.0000E+00  0.0000E+00
    -37.968  0.0000E+00  0.0000E+00
    -37.723  0.0000E+00  0.0000E+00
    -37.479  0.0000E+00  0.0000E+00
    -37.235  0.1205E+01  0.5443E+00
    -36.991  0.0000E+00  0.2000E+01
    -36.746  0.0000E+00  0.2000E+01
    -36.502  0.0000E+00  0.2000E+01
    -36.258  0.0000E+00  0.2000E+01
    -36.014  0.0000E+00  0.2000E+01
    -35.769  0.0000E+00  0.2000E+01
    -35.525  0.0000E+00  0.2000E+01
    -35.281  0.0000E+00  0.2000E+01
    -35.037  0.0000E+00  0.2000E+01
    -34.793  0.0000E+00  0.2000E+01
    -34.548  0.0000E+00  0.2000E+01
    -34.304  0.0000E+00  0.2000E+01
    -34.060  0.0000E+00  0.2000E+01
    -33.816  0.0000E+00  0.2000E+01
    -33.571  0.0000E+00  0.2000E+01
    -33.327  0.0000E+00  0.2000E+01
    -33.083  0.0000E+00  0.2000E+01
    -32.839  0.0000E+00  0.2000E+01
    -32.594  0.0000E+00  0.2000E+01
    -32.350  0.0000E+00  0.2000E+01
    -32.106  0.0000E+00  0.2000E+01
    -31.862  0.0000E+00  0.2000E+01
    -31.617  0.0000E+00  0.2000E+01
    -31.373  0.0000E+00  0.2000E+01
    -31.129  0.0000E+00  0.2000E+01
    -30.885  0.0000E+00  0.2000E+01
    -30.640  0.0000E+00  0.2000E+01
    -30.396  0.0000E+00  0.2000E+01
    -30.152  0.0000E+00  0.2000E+01
    -29.908  0.0000E+00  0.2000E+01
    -29.663  0.0000E+00  0.2000E+01
    -29.419  0.0000E+00  0.2000E+01
    -29.175  0.0000E+00  0.2000E+01
    -28.931  0.0000E+00  0.2000E+01
    -28.686  0.0000E+00  0.2000E+01
    -28.442  0.0000E+00  0.2000E+01
    -28.198  0.0000E+00  0.2000E+01
    -27.954  0.0000E+00  0.2000E+01
    -27.709  0.0000E+00  0.2000E+01
    -27.465  0.0000E+00  0.2000E+01
    -27.221  0.0000E+00  0.2000E+01
    -26.977  0.0000E+00  0.2000E+01
    -26.732  0.0000E+00  0.2000E+01
    -26.488  0.0000E+00  0.2000E+01
    -26.244  0.0000E+00  0.2000E+01
    -26.000  0.0000E+00  0.2000E+01
    -25.755  0.0000E+00  0.2000E+01
    -25.511  0.0000E+00  0.2000E+01
    -25.267  0.0000E+00  0.2000E+01
    -25.023  0.0000E+00  0.2000E+01
    -24.778  0.0000E+00  0.2000E+01
    -24.534  0.0000E+00  0.2000E+01
    -24.290  0.0000E+00  0.2000E+01
    -24.046  0.0000E+00  0.2000E+01
    -23.801  0.0000E+00  0.2000E+01
    -23.557  0.0000E+00  0.2000E+01
    -23.313  0.0000E+00  0.2000E+01
    -23.069  0.0000E+00  0.2000E+01
    -22.824  0.0000E+00  0.2000E+01
    -22.580  0.0000E+00  0.2000E+01
    -22.336  0.0000E+00  0.2000E+01
    -22.092  0.0000E+00  0.2000E+01
    -21.847  0.0000E+00  0.2000E+01
    -21.603  0.0000E+00  0.2000E+01
    -21.359  0.0000E+00  0.2000E+01
    -21.115  0.0000E+00  0.2000E+01
    -20.871  0.0000E+00  0.2000E+01
    -20.626  0.0000E+00  0.2000E+01
    -20.382  0.0000E+00  0.2000E+01
    -20.138  0.0000E+00  0.2000E+01
    -19.894  0.0000E+00  0.2000E+01
    -19.649  0.0000E+00  0.2000E+01
    -19.405  0.0000E+00  0.2000E+01
    -19.161  0.0000E+00  0.2000E+01
    -18.917  0.0000E+00  0.2000E+01
    -18.672  0.0000E+00  0.2000E+01
    -18.428  0.0000E+00  0.2000E+01
    -18.184  0.0000E+00  0.2000E+01
    -17.940  0.0000E+00  0.2000E+01
    -17.695  0.0000E+00  0.2000E+01
    -17.451  0.0000E+00  0.2000E+01
    -17.207  0.0000E+00  0.2000E+01
    -16.963  0.0000E+00  0.2000E+01
    -16.718  0.0000E+00  0.2000E+01
    -16.474  0.0000E+00  0.2000E+01
    -16.230  0.0000E+00  0.2000E+01
    -15.986  0.0000E+00  0.2000E+01
    -15.741  0.0000E+00  0.2000E+01
    -15.497  0.0000E+00  0.2000E+01
    -15.253  0.0000E+00  0.2000E+01
    -15.009  0.0000E+00  0.2000E+01
    -14.764  0.0000E+00  0.2000E+01
    -14.520  0.0000E+00  0.2000E+01
    -14.276  0.0000E+00  0.2000E+01
    -14.032  0.0000E+00  0.2000E+01
    -13.787  0.0000E+00  0.2000E+01
    -13.543  0.0000E+00  0.2000E+01
    -13.299  0.0000E+00  0.2000E+01
    -13.055  0.0000E+00  0.2000E+01
    -12.810  0.0000E+00  0.2000E+01
    -12.566  0.0000E+00  0.2037E+01
    -12.322  0.0000E+00  0.2731E+01
    -12.078  0.0000E+00  0.3750E+01
    -11.833  0.1137E+00  0.4222E+01
    -11.589  0.3942E-09  0.6259E+01
    -11.345  0.0000E+00  0.7852E+01
    -11.101  0.0000E+00  0.8000E+01
    -10.856  0.0000E+00  0.8000E+01
    -10.612  0.0000E+00  0.8000E+01
    -10.368  0.0000E+00  0.8000E+01
    -10.124  0.0000E+00  0.8000E+01
     -9.879  0.0000E+00  0.8000E+01
     -9.635  0.0000E+00  0.8000E+01
     -9.391  0.0000E+00  0.8000E+01
     -9.147  0.0000E+00  0.8000E+01
     -8.902  0.0000E+00  0.8000E+01
     -8.658  0.0000E+00  0.8000E+01
     -8.414  0.0000E+00  0.8000E+01
     -8.170  0.0000E+00  0.8000E+01
     -7.925  0.0000E+00  0.8000E+01
     -7.681  0.0000E+00  0.8000E+01
     -7.437  0.0000E+00  0.8000E+01
     -7.193  0.0000E+00  0.8000E+01
     -6.949  0.0000E+00  0.8000E+01
     -6.704  0.0000E+00  0.8000E+01
     -6.460  0.0000E+00  0.8000E+01
     -6.216  0.0000E+00  0.8000E+01
     -5.972  0.0000E+00  0.8000E+01
     -5.727  0.0000E+00  0.8000E+01
     -5.483  0.0000E+00  0.8000E+01
     -5.239  0.0000E+00  0.8000E+01
     -4.995  0.0000E+00  0.8000E+01
     -4.750  0.0000E+00  0.8000E+01
     -4.506  0.0000E+00  0.8000E+01
     -4.262  0.0000E+00  0.8000E+01
     -4.018  0.0000E+00  0.8000E+01
     -3.773  0.0000E+00  0.8000E+01
     -3.529  0.0000E+00  0.8000E+01
     -3.285  0.0000E+00  0.8000E+01
     -3.041  0.0000E+00  0.8000E+01
     -2.796  0.0000E+00  0.8000E+01
     -2.552  0.0000E+00  0.8000E+01
     -2.308  0.0000E+00  0.8000E+01
     -2.064  0.0000E+00  0.8000E+01
     -1.819  0.0000E+00  0.8000E+01
     -1.575  0.0000E+00  0.8000E+01
     -1.331  0.0000E+00  0.8000E+01
     -1.087  0.0000E+00  0.8000E+01
     -0.842  0.0000E+00  0.8000E+01
     -0.598  0.0000E+00  0.8000E+01
     -0.354  0.0000E+00  0.8000E+01
     -0.110  0.0000E+00  0.8000E+01
      0.135  0.0000E+00  0.8000E+01
      0.379  0.0000E+00  0.8000E+01
      0.623  0.0000E+00  0.8000E+01
      0.867  0.0000E+00  0.8000E+01
      1.112  0.0000E+00  0.8000E+01
      1.356  0.0000E+00  0.8000E+01
      1.600  0.0000E+00  0.8000E+01
      1.844  0.0000E+00  0.8009E+01
      2.089  0.0000E+00  0.8009E+01
      2.333  0.0000E+00  0.8009E+01
      2.577  0.0000E+00  0.8009E+01
      2.821  0.0000E+00  0.8083E+01
      3.066  0.0000E+00  0.8139E+01
      3.310  0.0000E+00  0.8139E+01
      3.554  0.0000E+00  0.8139E+01
      3.798  0.0000E+00  0.8139E+01
      4.043  0.0000E+00  0.8250E+01
      4.287  0.0000E+00  0.8250E+01
      4.531  0.0000E+00  0.8250E+01
      4.775  0.0000E+00  0.8472E+01
      5.020  0.0000E+00  0.8546E+01
      5.264  0.0000E+00  0.8546E+01
      5.508  0.0000E+00  0.8546E+01
      5.752  0.0000E+00  0.8546E+01
      5.997  0.0000E+00  0.8602E+01
      6.241  0.0000E+00  0.8602E+01
      6.485  0.0000E+00  0.8602E+01
      6.729  0.9098E+00  0.9046E+01
      6.973  0.0000E+00  0.9046E+01
      7.218  0.0000E+00  0.9046E+01
      7.462  0.0000E+00  0.9046E+01
      7.706  0.0000E+00  0.9269E+01
      7.950  0.0000E+00  0.9269E+01
      8.195  0.0000E+00  0.9528E+01
      8.439  0.4112E-08  0.9528E+01
      8.683  0.0000E+00  0.9565E+01
      8.927  0.0000E+00  0.9565E+01
      9.172  0.0000E+00  0.9926E+01
      9.416  0.0000E+00  0.9926E+01
      9.660  0.0000E+00  0.9926E+01
      9.904  0.0000E+00  0.1004E+02
     10.149  0.0000E+00  0.1026E+02
     10.393  0.0000E+00  0.1026E+02
     10.637  0.0000E+00  0.1051E+02
     10.881  0.0000E+00  0.1051E+02
     11.126  0.0000E+00  0.1062E+02
     11.370  0.0000E+00  0.1062E+02
     11.614  0.0000E+00  0.1095E+02
     11.858  0.0000E+00  0.1095E+02
     12.103  0.0000E+00  0.1129E+02
     12.347  0.3033E+00  0.1136E+02
     12.591  0.0000E+00  0.1147E+02
     12.835  0.0000E+00  0.1147E+02
     13.080  0.0000E+00  0.1147E+02
     13.324  0.0000E+00  0.1169E+02
     13.568  0.0000E+00  0.1214E+02
     13.812  0.0000E+00  0.1214E+02
     14.057  0.0000E+00  0.1236E+02
     14.301  0.0000E+00  0.1261E+02
     14.545  0.0000E+00  0.1267E+02
     14.789  0.0000E+00  0.1267E+02
     15.034  0.0000E+00  0.1272E+02
     15.278  0.0000E+00  0.1272E+02
     15.522  0.0000E+00  0.1283E+02
     15.766  0.0000E+00  0.1283E+02
     16.011  0.0000E+00  0.1306E+02
     16.255  0.0000E+00  0.1328E+02
     16.499  0.0000E+00  0.1328E+02
     16.743  0.4549E+00  0.1339E+02
     16.988  0.0000E+00  0.1339E+02
     17.232  0.0000E+00  0.1357E+02
     17.476  0.0000E+00  0.1380E+02
     17.720  0.0000E+00  0.1402E+02
     17.965  0.0000E+00  0.1407E+02
     18.209  0.0000E+00  0.1407E+02
     18.453  0.0000E+00  0.1407E+02
     18.697  0.0000E+00  0.1430E+02
     18.942  0.0000E+00  0.1430E+02
     19.186  0.0000E+00  0.1435E+02
     19.430  0.0000E+00  0.1469E+02
     19.674  0.0000E+00  0.1480E+02
     19.919  0.1522E+00  0.1528E+02
     20.163  0.0000E+00  0.1554E+02
     20.407  0.0000E+00  0.1554E+02
     20.651  0.7639E-15  0.1593E+02
     20.895  0.0000E+00  0.1607E+02
     21.140  0.0000E+00  0.1607E+02
     21.384  0.0000E+00  0.1619E+02
     21.628  0.0000E+00  0.1633E+02
     21.872  0.0000E+00  0.1658E+02
     22.117  0.0000E+00  0.1662E+02
     22.361  0.0000E+00  0.1681E+02
     22.605  0.0000E+00  0.1681E+02
     22.849  0.0000E+00  0.1714E+02
     23.094  0.0000E+00  0.1714E+02
     23.338  0.0000E+00  0.1736E+02
     23.582  0.0000E+00  0.1737E+02
     23.826  0.0000E+00  0.1756E+02
     24.071  0.0000E+00  0.1756E+02
     24.315  0.0000E+00  0.1778E+02
     24.559  0.0000E+00  0.1778E+02
     24.803  0.0000E+00  0.1778E+02
     25.048  0.0000E+00  0.1803E+02
     25.292  0.0000E+00  0.1803E+02
     25.536  0.0000E+00  0.1814E+02
     25.780  0.0000E+00  0.1836E+02
     26.025  0.0000E+00  0.1851E+02
     26.269  0.0000E+00  0.1873E+02
     26.513  0.0000E+00  0.1882E+02
     26.757  0.0000E+00  0.1882E+02
     27.002  0.2420E-10  0.1882E+02
     27.246  0.0000E+00  0.1883E+02
     27.490  0.0000E+00  0.1928E+02
     27.734  0.0000E+00  0.1950E+02
     27.979  0.0000E+00  0.1972E+02
     28.223  0.0000E+00  0.1972E+02
     28.467  0.0000E+00  0.1983E+02
     28.711  0.0000E+00  0.1983E+02
     28.956  0.0000E+00  0.1989E+02
     29.200  0.0000E+00  0.1989E+02
     29.444  0.0000E+00  0.2000E+02
     29.688  0.0000E+00  0.2000E+02
     29.933  0.0000E+00  0.2000E+02
     30.177  0.0000E+00  0.2000E+02
     30.421  0.0000E+00  0.2000E+02
     30.665  0.0000E+00  0.2000E+02
     30.910  0.0000E+00  0.2000E+02
     31.154  0.0000E+00  0.2000E+02
     31.398  0.0000E+00  0.2000E+02
     31.642  0.0000E+00  0.2000E+02
     31.887  0.0000E+00  0.2000E+02
     32.131  0.0000E+00  0.2000E+02
     32.375  0.0000E+00  0.2000E+02
     32.619  0.0000E+00  0.2000E+02
