   1   1   0   0
  0.2224118E+02  0.3156634E-09  0.3156634E-09  0.3156634E-09  0.1000000E-15
  1.000000000000000E-004
  CAR 
 Og_FCC                                  
     24.89608446    -40.66608480  301    -11.76409518      1.00000000
    -40.666  0.0000E+00  0.0000E+00
    -40.448  0.0000E+00  0.0000E+00
    -40.229  0.0000E+00  0.0000E+00
    -40.010  0.0000E+00  0.0000E+00
    -39.792  0.0000E+00  0.0000E+00
    -39.573  0.0000E+00  0.0000E+00
    -39.355  0.0000E+00  0.0000E+00
    -39.136  0.0000E+00  0.0000E+00
    -38.918  0.0000E+00  0.0000E+00
    -38.699  0.0000E+00  0.0000E+00
    -38.481  0.0000E+00  0.0000E+00
    -38.262  0.0000E+00  0.0000E+00
    -38.044  0.0000E+00  0.0000E+00
    -37.825  0.0000E+00  0.0000E+00
    -37.607  0.1989E+01  0.1629E+01
    -37.388  0.0000E+00  0.2000E+01
    -37.169  0.0000E+00  0.2000E+01
    -36.951  0.0000E+00  0.2000E+01
    -36.732  0.0000E+00  0.2000E+01
    -36.514  0.0000E+00  0.2000E+01
    -36.295  0.0000E+00  0.2000E+01
    -36.077  0.0000E+00  0.2000E+01
    -35.858  0.0000E+00  0.2000E+01
    -35.640  0.0000E+00  0.2000E+01
    -35.421  0.0000E+00  0.2000E+01
    -35.203  0.0000E+00  0.2000E+01
    -34.984  0.0000E+00  0.2000E+01
    -34.765  0.0000E+00  0.2000E+01
    -34.547  0.0000E+00  0.2000E+01
    -34.328  0.0000E+00  0.2000E+01
    -34.110  0.0000E+00  0.2000E+01
    -33.891  0.0000E+00  0.2000E+01
    -33.673  0.0000E+00  0.2000E+01
    -33.454  0.0000E+00  0.2000E+01
    -33.236  0.0000E+00  0.2000E+01
    -33.017  0.0000E+00  0.2000E+01
    -32.799  0.0000E+00  0.2000E+01
    -32.580  0.0000E+00  0.2000E+01
    -32.362  0.0000E+00  0.2000E+01
    -32.143  0.0000E+00  0.2000E+01
    -31.924  0.0000E+00  0.2000E+01
    -31.706  0.0000E+00  0.2000E+01
    -31.487  0.0000E+00  0.2000E+01
    -31.269  0.0000E+00  0.2000E+01
    -31.050  0.0000E+00  0.2000E+01
    -30.832  0.0000E+00  0.2000E+01
    -30.613  0.0000E+00  0.2000E+01
    -30.395  0.0000E+00  0.2000E+01
    -30.176  0.0000E+00  0.2000E+01
    -29.958  0.0000E+00  0.2000E+01
    -29.739  0.0000E+00  0.2000E+01
    -29.521  0.0000E+00  0.2000E+01
    -29.302  0.0000E+00  0.2000E+01
    -29.083  0.0000E+00  0.2000E+01
    -28.865  0.0000E+00  0.2000E+01
    -28.646  0.0000E+00  0.2000E+01
    -28.428  0.0000E+00  0.2000E+01
    -28.209  0.0000E+00  0.2000E+01
    -27.991  0.0000E+00  0.2000E+01
    -27.772  0.0000E+00  0.2000E+01
    -27.554  0.0000E+00  0.2000E+01
    -27.335  0.0000E+00  0.2000E+01
    -27.117  0.0000E+00  0.2000E+01
    -26.898  0.0000E+00  0.2000E+01
    -26.679  0.0000E+00  0.2000E+01
    -26.461  0.0000E+00  0.2000E+01
    -26.242  0.0000E+00  0.2000E+01
    -26.024  0.0000E+00  0.2000E+01
    -25.805  0.0000E+00  0.2000E+01
    -25.587  0.0000E+00  0.2000E+01
    -25.368  0.0000E+00  0.2000E+01
    -25.150  0.0000E+00  0.2000E+01
    -24.931  0.0000E+00  0.2000E+01
    -24.713  0.0000E+00  0.2000E+01
    -24.494  0.0000E+00  0.2000E+01
    -24.276  0.0000E+00  0.2000E+01
    -24.057  0.0000E+00  0.2000E+01
    -23.838  0.0000E+00  0.2000E+01
    -23.620  0.0000E+00  0.2000E+01
    -23.401  0.0000E+00  0.2000E+01
    -23.183  0.0000E+00  0.2000E+01
    -22.964  0.0000E+00  0.2000E+01
    -22.746  0.0000E+00  0.2000E+01
    -22.527  0.0000E+00  0.2000E+01
    -22.309  0.0000E+00  0.2000E+01
    -22.090  0.0000E+00  0.2000E+01
    -21.872  0.0000E+00  0.2000E+01
    -21.653  0.0000E+00  0.2000E+01
    -21.435  0.0000E+00  0.2000E+01
    -21.216  0.0000E+00  0.2000E+01
    -20.997  0.0000E+00  0.2000E+01
    -20.779  0.0000E+00  0.2000E+01
    -20.560  0.0000E+00  0.2000E+01
    -20.342  0.0000E+00  0.2000E+01
    -20.123  0.0000E+00  0.2000E+01
    -19.905  0.0000E+00  0.2000E+01
    -19.686  0.0000E+00  0.2000E+01
    -19.468  0.0000E+00  0.2000E+01
    -19.249  0.0000E+00  0.2000E+01
    -19.031  0.0000E+00  0.2000E+01
    -18.812  0.0000E+00  0.2000E+01
    -18.593  0.0000E+00  0.2000E+01
    -18.375  0.0000E+00  0.2000E+01
    -18.156  0.0000E+00  0.2000E+01
    -17.938  0.0000E+00  0.2000E+01
    -17.719  0.0000E+00  0.2000E+01
    -17.501  0.0000E+00  0.2000E+01
    -17.282  0.0000E+00  0.2000E+01
    -17.064  0.0000E+00  0.2000E+01
    -16.845  0.0000E+00  0.2000E+01
    -16.627  0.0000E+00  0.2000E+01
    -16.408  0.0000E+00  0.2000E+01
    -16.190  0.0000E+00  0.2000E+01
    -15.971  0.0000E+00  0.2000E+01
    -15.752  0.0000E+00  0.2000E+01
    -15.534  0.0000E+00  0.2000E+01
    -15.315  0.0000E+00  0.2000E+01
    -15.097  0.0000E+00  0.2000E+01
    -14.878  0.0000E+00  0.2000E+01
    -14.660  0.0000E+00  0.2000E+01
    -14.441  0.0000E+00  0.2000E+01
    -14.223  0.0000E+00  0.2000E+01
    -14.004  0.0000E+00  0.2000E+01
    -13.786  0.0000E+00  0.2000E+01
    -13.567  0.0000E+00  0.2000E+01
    -13.349  0.0000E+00  0.2000E+01
    -13.130  0.0000E+00  0.2000E+01
    -12.911  0.0000E+00  0.2000E+01
    -12.693  0.0000E+00  0.2000E+01
    -12.474  0.3977E-09  0.2111E+01
    -12.256  0.1314E+01  0.5019E+01
    -12.037  0.4532E-03  0.7519E+01
    -11.819  0.0000E+00  0.8000E+01
    -11.600  0.0000E+00  0.8000E+01
    -11.382  0.0000E+00  0.8000E+01
    -11.163  0.0000E+00  0.8000E+01
    -10.945  0.0000E+00  0.8000E+01
    -10.726  0.0000E+00  0.8000E+01
    -10.507  0.0000E+00  0.8000E+01
    -10.289  0.0000E+00  0.8000E+01
    -10.070  0.0000E+00  0.8000E+01
     -9.852  0.0000E+00  0.8000E+01
     -9.633  0.0000E+00  0.8000E+01
     -9.415  0.0000E+00  0.8000E+01
     -9.196  0.0000E+00  0.8000E+01
     -8.978  0.0000E+00  0.8000E+01
     -8.759  0.0000E+00  0.8000E+01
     -8.541  0.0000E+00  0.8000E+01
     -8.322  0.0000E+00  0.8000E+01
     -8.104  0.0000E+00  0.8000E+01
     -7.885  0.0000E+00  0.8000E+01
     -7.666  0.0000E+00  0.8000E+01
     -7.448  0.0000E+00  0.8000E+01
     -7.229  0.0000E+00  0.8000E+01
     -7.011  0.0000E+00  0.8000E+01
     -6.792  0.0000E+00  0.8000E+01
     -6.574  0.0000E+00  0.8000E+01
     -6.355  0.0000E+00  0.8000E+01
     -6.137  0.0000E+00  0.8000E+01
     -5.918  0.0000E+00  0.8000E+01
     -5.700  0.0000E+00  0.8000E+01
     -5.481  0.0000E+00  0.8000E+01
     -5.263  0.0000E+00  0.8000E+01
     -5.044  0.0000E+00  0.8000E+01
     -4.825  0.0000E+00  0.8000E+01
     -4.607  0.0000E+00  0.8000E+01
     -4.388  0.0000E+00  0.8000E+01
     -4.170  0.0000E+00  0.8000E+01
     -3.951  0.0000E+00  0.8000E+01
     -3.733  0.0000E+00  0.8000E+01
     -3.514  0.0000E+00  0.8000E+01
     -3.296  0.0000E+00  0.8000E+01
     -3.077  0.0000E+00  0.8000E+01
     -2.859  0.0000E+00  0.8000E+01
     -2.640  0.0000E+00  0.8000E+01
     -2.421  0.0000E+00  0.8000E+01
     -2.203  0.0000E+00  0.8000E+01
     -1.984  0.0000E+00  0.8000E+01
     -1.766  0.0000E+00  0.8000E+01
     -1.547  0.0000E+00  0.8000E+01
     -1.329  0.0000E+00  0.8000E+01
     -1.110  0.0000E+00  0.8000E+01
     -0.892  0.0000E+00  0.8000E+01
     -0.673  0.0000E+00  0.8000E+01
     -0.455  0.0000E+00  0.8000E+01
     -0.236  0.0000E+00  0.8000E+01
     -0.018  0.0000E+00  0.8000E+01
      0.201  0.0000E+00  0.8000E+01
      0.420  0.0000E+00  0.8000E+01
      0.638  0.0000E+00  0.8000E+01
      0.857  0.0000E+00  0.8000E+01
      1.075  0.0000E+00  0.8009E+01
      1.294  0.0000E+00  0.8009E+01
      1.512  0.0000E+00  0.8009E+01
      1.731  0.0000E+00  0.8083E+01
      1.949  0.0000E+00  0.8083E+01
      2.168  0.0000E+00  0.8139E+01
      2.386  0.0000E+00  0.8139E+01
      2.605  0.0000E+00  0.8139E+01
      2.823  0.0000E+00  0.8139E+01
      3.042  0.0000E+00  0.8250E+01
      3.261  0.0000E+00  0.8250E+01
      3.479  0.0000E+00  0.8250E+01
      3.698  0.0000E+00  0.8472E+01
      3.916  0.0000E+00  0.8546E+01
      4.135  0.0000E+00  0.8546E+01
      4.353  0.0000E+00  0.8546E+01
      4.572  0.0000E+00  0.8546E+01
      4.790  0.0000E+00  0.8602E+01
      5.009  0.0000E+00  0.8602E+01
      5.227  0.0000E+00  0.8602E+01
      5.446  0.0000E+00  0.8824E+01
      5.665  0.0000E+00  0.9046E+01
      5.883  0.0000E+00  0.9046E+01
      6.102  0.0000E+00  0.9046E+01
      6.320  0.0000E+00  0.9269E+01
      6.539  0.0000E+00  0.9269E+01
      6.757  0.0000E+00  0.9269E+01
      6.976  0.0000E+00  0.9528E+01
      7.194  0.0000E+00  0.9565E+01
      7.413  0.0000E+00  0.9565E+01
      7.631  0.0000E+00  0.9676E+01
      7.850  0.0000E+00  0.9898E+01
      8.068  0.0000E+00  0.9926E+01
      8.287  0.0000E+00  0.9926E+01
      8.506  0.5084E+00  0.1004E+02
      8.724  0.0000E+00  0.1026E+02
      8.943  0.0000E+00  0.1051E+02
      9.161  0.0000E+00  0.1051E+02
      9.380  0.0000E+00  0.1062E+02
      9.598  0.0000E+00  0.1062E+02
      9.817  0.0000E+00  0.1095E+02
     10.035  0.0000E+00  0.1095E+02
     10.254  0.0000E+00  0.1095E+02
     10.472  0.0000E+00  0.1129E+02
     10.691  0.0000E+00  0.1129E+02
     10.909  0.0000E+00  0.1147E+02
     11.128  0.0000E+00  0.1147E+02
     11.347  0.0000E+00  0.1147E+02
     11.565  0.0000E+00  0.1169E+02
     11.784  0.0000E+00  0.1214E+02
     12.002  0.0000E+00  0.1214E+02
     12.221  0.0000E+00  0.1236E+02
     12.439  0.0000E+00  0.1258E+02
     12.658  0.0000E+00  0.1261E+02
     12.876  0.0000E+00  0.1267E+02
     13.095  0.0000E+00  0.1267E+02
     13.313  0.0000E+00  0.1267E+02
     13.532  0.0000E+00  0.1283E+02
     13.751  0.0000E+00  0.1283E+02
     13.969  0.0000E+00  0.1306E+02
     14.188  0.0000E+00  0.1306E+02
     14.406  0.0000E+00  0.1339E+02
     14.625  0.0000E+00  0.1339E+02
     14.843  0.0000E+00  0.1339E+02
     15.062  0.0000E+00  0.1350E+02
     15.280  0.0000E+00  0.1380E+02
     15.499  0.0000E+00  0.1402E+02
     15.717  0.0000E+00  0.1402E+02
     15.936  0.0000E+00  0.1407E+02
     16.154  0.0000E+00  0.1430E+02
     16.373  0.0000E+00  0.1430E+02
     16.592  0.0000E+00  0.1435E+02
     16.810  0.0000E+00  0.1469E+02
     17.029  0.0000E+00  0.1469E+02
     17.247  0.0000E+00  0.1502E+02
     17.466  0.0000E+00  0.1546E+02
     17.684  0.0000E+00  0.1546E+02
     17.903  0.3389E+00  0.1554E+02
     18.121  0.0000E+00  0.1587E+02
     18.340  0.0000E+00  0.1607E+02
     18.558  0.0000E+00  0.1619E+02
     18.777  0.0000E+00  0.1619E+02
     18.995  0.0000E+00  0.1619E+02
     19.214  0.0000E+00  0.1656E+02
     19.433  0.0000E+00  0.1658E+02
     19.651  0.0000E+00  0.1662E+02
     19.870  0.5084E+00  0.1714E+02
     20.088  0.0000E+00  0.1714E+02
     20.307  0.0000E+00  0.1714E+02
     20.525  0.0000E+00  0.1736E+02
     20.744  0.0000E+00  0.1736E+02
     20.962  0.1451E-05  0.1737E+02
     21.181  0.0000E+00  0.1778E+02
     21.399  0.0000E+00  0.1778E+02
     21.618  0.0000E+00  0.1778E+02
     21.837  0.0000E+00  0.1778E+02
     22.055  0.0000E+00  0.1800E+02
     22.274  0.0000E+00  0.1800E+02
     22.492  0.0000E+00  0.1800E+02
     22.711  0.0000E+00  0.1800E+02
     22.929  0.0000E+00  0.1800E+02
     23.148  0.0000E+00  0.1800E+02
     23.366  0.0000E+00  0.1800E+02
     23.585  0.0000E+00  0.1800E+02
     23.803  0.0000E+00  0.1800E+02
     24.022  0.0000E+00  0.1800E+02
     24.240  0.0000E+00  0.1800E+02
     24.459  0.0000E+00  0.1800E+02
     24.678  0.0000E+00  0.1800E+02
     24.896  0.0000E+00  0.1800E+02
