    1    1    1    1
  0.2224118E+02  0.3156634E-09  0.3156634E-09  0.3156634E-09  0.1000000E-15
  1.000000000000000E-004
  CAR 
 Og_FCC                                  
      8    216     18
 
  0.0000000E+00  0.0000000E+00  0.0000000E+00  0.4629630E-02
    1      -37.677754   1.000000
    2      -37.677742   1.000000
    3      -11.970162   1.000000
    4      -11.970148   1.000000
    5      -11.875187   1.000000
    6      -11.875175   1.000000
    7      -11.875077   1.000000
    8      -11.875065   1.000000
    9        0.961545   0.000000
   10        0.961561   0.000000
   11       19.369713   0.000000
   12       19.369734   0.000000
   13       19.369815   0.000000
   14       19.369842   0.000000
   15       19.369980   0.000000
   16       19.370012   0.000000
   17       20.855564   0.000000
   18       20.855615   0.000000
 
  0.1666667E+00 -0.1387779E-16 -0.6938894E-17  0.4629630E-02
    1      -37.685986   1.000000
    2      -37.685973   1.000000
    3      -12.440193   1.000000
    4      -12.440182   1.000000
    5      -12.197614   1.000000
    6      -12.197603   1.000000
    7      -12.141417   1.000000
    8      -12.141403   1.000000
    9        1.717803   0.000000
   10        1.717819   0.000000
   11       15.093458   0.000000
   12       15.093490   0.000000
   13       19.092923   0.000000
   14       19.092941   0.000000
   15       19.094409   0.000000
   16       19.094424   0.000000
   17       21.005064   0.000000
   18       21.005116   0.000000
 
  0.3333333E+00  0.0000000E+00 -0.1387779E-16  0.4629630E-02
    1      -37.625564   1.000000
    2      -37.625551   1.000000
    3      -12.178166   1.000000
    4      -12.178156   1.000000
    5      -12.016583   1.000000
    6      -12.016571   1.000000
    7      -11.965287   1.000000
    8      -11.965272   1.000000
    9        3.892457   0.000000
   10        3.892475   0.000000
   11       10.705716   0.000000
   12       10.705742   0.000000
   13       18.318160   0.000000
   14       18.318184   0.000000
   15       18.318856   0.000000
   16       18.318869   0.000000
   17       19.761892   0.000000
   18       19.761945   0.000000
 
  0.5000000E+00  0.0000000E+00 -0.5551115E-16  0.4629630E-02
    1      -37.629989   1.000000
    2      -37.629975   1.000000
    3      -12.424953   1.000000
    4      -12.424944   1.000000
    5      -12.304827   1.000000
    6      -12.304816   1.000000
    7      -12.257374   1.000000
    8      -12.257360   1.000000
    9        6.783340   0.000000
   10        6.783370   0.000000
   11        7.049092   0.000000
   12        7.049109   0.000000
   13       17.900053   0.000000
   14       17.900086   0.000000
   15       17.900342   0.000000
   16       17.900361   0.000000
   17       19.497040   0.000000
   18       19.497095   0.000000
 
 -0.3333333E+00  0.0000000E+00  0.1387779E-16  0.4629630E-02
    1      -37.625564   1.000000
    2      -37.625551   1.000000
    3      -12.178166   1.000000
    4      -12.178156   1.000000
    5      -12.016583   1.000000
    6      -12.016571   1.000000
    7      -11.965287   1.000000
    8      -11.965272   1.000000
    9        3.892457   0.000000
   10        3.892475   0.000000
   11       10.705716   0.000000
   12       10.705742   0.000000
   13       18.318161   0.000000
   14       18.318184   0.000000
   15       18.318855   0.000000
   16       18.318869   0.000000
   17       19.761892   0.000000
   18       19.761945   0.000000
 
 -0.1666667E+00  0.1387779E-16  0.6938894E-17  0.4629630E-02
    1      -37.685986   1.000000
    2      -37.685973   1.000000
    3      -12.440193   1.000000
    4      -12.440182   1.000000
    5      -12.197614   1.000000
    6      -12.197603   1.000000
    7      -12.141417   1.000000
    8      -12.141403   1.000000
    9        1.717803   0.000000
   10        1.717819   0.000000
   11       15.093458   0.000000
   12       15.093490   0.000000
   13       19.092924   0.000000
   14       19.092942   0.000000
   15       19.094408   0.000000
   16       19.094423   0.000000
   17       21.005064   0.000000
   18       21.005116   0.000000
 
  0.0000000E+00  0.1666667E+00  0.6938894E-17  0.4629630E-02
    1      -37.685986   1.000000
    2      -37.685973   1.000000
    3      -12.440189   1.000000
    4      -12.440177   1.000000
    5      -12.197616   1.000000
    6      -12.197605   1.000000
    7      -12.141419   1.000000
    8      -12.141405   1.000000
    9        1.717802   0.000000
   10        1.717819   0.000000
   11       15.093451   0.000000
   12       15.093483   0.000000
   13       19.092946   0.000000
   14       19.092955   0.000000
   15       19.094433   0.000000
   16       19.094437   0.000000
   17       21.005023   0.000000
   18       21.005074   0.000000
 
  0.1666667E+00  0.1666667E+00 -0.1387779E-16  0.4629630E-02
    1      -37.664184   1.000000
    2      -37.664171   1.000000
    3      -12.255839   1.000000
    4      -12.255832   1.000000
    5      -12.076627   1.000000
    6      -12.076619   1.000000
    7      -12.024859   1.000000
    8      -12.024850   1.000000
    9        1.965696   0.000000
   10        1.965713   0.000000
   11       15.843970   0.000000
   12       15.844006   0.000000
   13       17.978335   0.000000
   14       17.978353   0.000000
   15       17.983464   0.000000
   16       17.983481   0.000000
   17       18.154753   0.000000
   18       18.154793   0.000000
 
  0.3333333E+00  0.1666667E+00 -0.2775558E-16  0.4629630E-02
    1      -37.646532   1.000000
    2      -37.646518   1.000000
    3      -12.433618   1.000000
    4      -12.433612   1.000000
    5      -12.278685   1.000000
    6      -12.278675   1.000000
    7      -12.221948   1.000000
    8      -12.221939   1.000000
    9        3.612428   0.000000
   10        3.612447   0.000000
   11       12.350999   0.000000
   12       12.351029   0.000000
   13       15.438055   0.000000
   14       15.438095   0.000000
   15       17.364572   0.000000
   16       17.364596   0.000000
   17       19.111832   0.000000
   18       19.111860   0.000000
 
  0.5000000E+00  0.1666667E+00  0.0000000E+00  0.4629630E-02
    1      -37.619131   1.000000
    2      -37.619117   1.000000
    3      -12.417087   1.000000
    4      -12.417075   1.000000
    5      -12.245929   1.000000
    6      -12.245916   1.000000
    7      -12.193032   1.000000
    8      -12.193017   1.000000
    9        6.302372   0.000000
   10        6.302395   0.000000
   11        8.560735   0.000000
   12        8.560758   0.000000
   13       14.323494   0.000000
   14       14.323530   0.000000
   15       17.308457   0.000000
   16       17.308481   0.000000
   17       19.737913   0.000000
   18       19.737930   0.000000
 
 -0.3333333E+00  0.1666667E+00  0.6938894E-17  0.4629630E-02
    1      -37.616097   1.000000
    2      -37.616083   1.000000
    3      -12.338962   1.000000
    4      -12.338952   1.000000
    5      -12.133904   1.000000
    6      -12.133895   1.000000
    7      -12.034931   1.000000
    8      -12.034921   1.000000
    9        5.341117   0.000000
   10        5.341138   0.000000
   11        9.800576   0.000000
   12        9.800601   0.000000
   13       13.948206   0.000000
   14       13.948239   0.000000
   15       18.071414   0.000000
   16       18.071440   0.000000
   17       20.965689   0.000000
   18       20.965706   0.000000
 
 -0.1666667E+00  0.1666667E+00  0.7166211E-17  0.4629630E-02
    1      -37.655994   1.000000
    2      -37.655981   1.000000
    3      -12.352673   1.000000
    4      -12.352660   1.000000
    5      -12.264195   1.000000
    6      -12.264188   1.000000
    7      -12.158590   1.000000
    8      -12.158582   1.000000
    9        2.949591   0.000000
   10        2.949609   0.000000
   11       13.342234   0.000000
   12       13.342265   0.000000
   13       15.049889   0.000000
   14       15.049923   0.000000
   15       19.785154   0.000000
   16       19.785183   0.000000
   17       21.037808   0.000000
   18       21.037841   0.000000
 
  0.0000000E+00  0.3333333E+00 -0.1387779E-16  0.4629630E-02
    1      -37.625564   1.000000
    2      -37.625551   1.000000
    3      -12.178165   1.000000
    4      -12.178153   1.000000
    5      -12.016585   1.000000
    6      -12.016574   1.000000
    7      -11.965289   1.000000
    8      -11.965276   1.000000
    9        3.892458   0.000000
   10        3.892476   0.000000
   11       10.705714   0.000000
   12       10.705740   0.000000
   13       18.318185   0.000000
   14       18.318203   0.000000
   15       18.318879   0.000000
   16       18.318885   0.000000
   17       19.761852   0.000000
   18       19.761905   0.000000
 
  0.1666667E+00  0.3333333E+00  0.2775558E-16  0.4629630E-02
    1      -37.646531   1.000000
    2      -37.646518   1.000000
    3      -12.433620   1.000000
    4      -12.433610   1.000000
    5      -12.278687   1.000000
    6      -12.278678   1.000000
    7      -12.221949   1.000000
    8      -12.221942   1.000000
    9        3.612430   0.000000
   10        3.612449   0.000000
   11       12.350995   0.000000
   12       12.351024   0.000000
   13       15.438057   0.000000
   14       15.438097   0.000000
   15       17.364577   0.000000
   16       17.364601   0.000000
   17       19.111839   0.000000
   18       19.111868   0.000000
 
  0.3333333E+00  0.3333333E+00  0.0000000E+00  0.4629630E-02
    1      -37.625730   1.000000
    2      -37.625717   1.000000
    3      -12.404049   1.000000
    4      -12.404041   1.000000
    5      -12.267999   1.000000
    6      -12.267991   1.000000
    7      -12.219894   1.000000
    8      -12.219885   1.000000
    9        4.666074   0.000000
   10        4.666094   0.000000
   11       12.719111   0.000000
   12       12.719145   0.000000
   13       13.336173   0.000000
   14       13.336207   0.000000
   15       16.734338   0.000000
   16       16.734355   0.000000
   17       16.744356   0.000000
   18       16.744371   0.000000
 
  0.5000000E+00  0.3333333E+00  0.0000000E+00  0.4629630E-02
    1      -37.603830   1.000000
    2      -37.603817   1.000000
    3      -12.351447   1.000000
    4      -12.351435   1.000000
    5      -12.260738   1.000000
    6      -12.260731   1.000000
    7      -12.202185   1.000000
    8      -12.202177   1.000000
    9        6.794661   0.000000
   10        6.794685   0.000000
   11       10.353964   0.000000
   12       10.353994   0.000000
   13       11.617894   0.000000
   14       11.617924   0.000000
   15       16.624150   0.000000
   16       16.624170   0.000000
   17       17.102133   0.000000
   18       17.102155   0.000000
 
 -0.3333333E+00  0.3333333E+00  0.1433242E-16  0.4629630E-02
    1      -37.616721   1.000000
    2      -37.616708   1.000000
    3      -12.537176   1.000000
    4      -12.537169   1.000000
    5      -12.436217   1.000000
    6      -12.436206   1.000000
    7      -12.270564   1.000000
    8      -12.270557   1.000000
    9        7.538573   0.000000
   10        7.538601   0.000000
   11        9.754522   0.000000
   12        9.754550   0.000000
   13       10.381964   0.000000
   14       10.381990   0.000000
   15       17.049494   0.000000
   16       17.049516   0.000000
   17       18.433973   0.000000
   18       18.433989   0.000000
 
 -0.1666667E+00  0.3333333E+00 -0.6938894E-17  0.4629630E-02
    1      -37.616096   1.000000
    2      -37.616083   1.000000
    3      -12.338959   1.000000
    4      -12.338948   1.000000
    5      -12.133908   1.000000
    6      -12.133901   1.000000
    7      -12.034930   1.000000
    8      -12.034922   1.000000
    9        5.341117   0.000000
   10        5.341138   0.000000
   11        9.800577   0.000000
   12        9.800603   0.000000
   13       13.948208   0.000000
   14       13.948241   0.000000
   15       18.071417   0.000000
   16       18.071444   0.000000
   17       20.965693   0.000000
   18       20.965710   0.000000
 
  0.0000000E+00  0.5000000E+00 -0.5551115E-16  0.4629630E-02
    1      -37.629988   1.000000
    2      -37.629975   1.000000
    3      -12.424954   1.000000
    4      -12.424942   1.000000
    5      -12.304830   1.000000
    6      -12.304820   1.000000
    7      -12.257378   1.000000
    8      -12.257365   1.000000
    9        6.783347   0.000000
   10        6.783377   0.000000
   11        7.049089   0.000000
   12        7.049106   0.000000
   13       17.900078   0.000000
   14       17.900109   0.000000
   15       17.900358   0.000000
   16       17.900380   0.000000
   17       19.497000   0.000000
   18       19.497054   0.000000
 
  0.1666667E+00  0.5000000E+00 -0.2775558E-16  0.4629630E-02
    1      -37.619130   1.000000
    2      -37.619117   1.000000
    3      -12.417087   1.000000
    4      -12.417074   1.000000
    5      -12.245931   1.000000
    6      -12.245920   1.000000
    7      -12.193035   1.000000
    8      -12.193020   1.000000
    9        6.302374   0.000000
   10        6.302397   0.000000
   11        8.560733   0.000000
   12        8.560756   0.000000
   13       14.323497   0.000000
   14       14.323533   0.000000
   15       17.308461   0.000000
   16       17.308486   0.000000
   17       19.737918   0.000000
   18       19.737935   0.000000
 
  0.3333333E+00  0.5000000E+00 -0.5551115E-16  0.4629630E-02
    1      -37.603830   1.000000
    2      -37.603817   1.000000
    3      -12.351449   1.000000
    4      -12.351440   1.000000
    5      -12.260739   1.000000
    6      -12.260730   1.000000
    7      -12.202185   1.000000
    8      -12.202176   1.000000
    9        6.794665   0.000000
   10        6.794689   0.000000
   11       10.353963   0.000000
   12       10.353993   0.000000
   13       11.617896   0.000000
   14       11.617926   0.000000
   15       16.624151   0.000000
   16       16.624171   0.000000
   17       17.102137   0.000000
   18       17.102160   0.000000
 
  0.5000000E+00  0.5000000E+00 -0.1110223E-15  0.4629630E-02
    1      -37.589048   1.000000
    2      -37.589035   1.000000
    3      -12.397170   1.000000
    4      -12.397164   1.000000
    5      -12.061287   1.000000
    6      -12.061279   1.000000
    7      -12.005473   1.000000
    8      -12.005464   1.000000
    9        7.877219   0.000000
   10        7.877247   0.000000
   11        8.848614   0.000000
   12        8.848639   0.000000
   13       12.500875   0.000000
   14       12.500909   0.000000
   15       16.447683   0.000000
   16       16.447699   0.000000
   17       16.459339   0.000000
   18       16.459353   0.000000
 
 -0.3333333E+00  0.5000000E+00 -0.1387779E-16  0.4629630E-02
    1      -37.603830   1.000000
    2      -37.603817   1.000000
    3      -12.351449   1.000000
    4      -12.351440   1.000000
    5      -12.260739   1.000000
    6      -12.260730   1.000000
    7      -12.202185   1.000000
    8      -12.202176   1.000000
    9        6.794665   0.000000
   10        6.794689   0.000000
   11       10.353963   0.000000
   12       10.353993   0.000000
   13       11.617896   0.000000
   14       11.617926   0.000000
   15       16.624151   0.000000
   16       16.624171   0.000000
   17       17.102137   0.000000
   18       17.102160   0.000000
 
 -0.1666667E+00  0.5000000E+00  0.1387779E-16  0.4629630E-02
    1      -37.619130   1.000000
    2      -37.619117   1.000000
    3      -12.417087   1.000000
    4      -12.417074   1.000000
    5      -12.245931   1.000000
    6      -12.245920   1.000000
    7      -12.193035   1.000000
    8      -12.193020   1.000000
    9        6.302374   0.000000
   10        6.302397   0.000000
   11        8.560733   0.000000
   12        8.560756   0.000000
   13       14.323497   0.000000
   14       14.323533   0.000000
   15       17.308461   0.000000
   16       17.308486   0.000000
   17       19.737918   0.000000
   18       19.737935   0.000000
 
  0.0000000E+00 -0.3333333E+00  0.1387779E-16  0.4629630E-02
    1      -37.625564   1.000000
    2      -37.625551   1.000000
    3      -12.178165   1.000000
    4      -12.178153   1.000000
    5      -12.016585   1.000000
    6      -12.016575   1.000000
    7      -11.965289   1.000000
    8      -11.965276   1.000000
    9        3.892458   0.000000
   10        3.892476   0.000000
   11       10.705714   0.000000
   12       10.705740   0.000000
   13       18.318185   0.000000
   14       18.318203   0.000000
   15       18.318879   0.000000
   16       18.318885   0.000000
   17       19.761852   0.000000
   18       19.761905   0.000000
 
  0.1666667E+00 -0.3333333E+00  0.6938894E-17  0.4629630E-02
    1      -37.616096   1.000000
    2      -37.616083   1.000000
    3      -12.338959   1.000000
    4      -12.338948   1.000000
    5      -12.133908   1.000000
    6      -12.133901   1.000000
    7      -12.034930   1.000000
    8      -12.034922   1.000000
    9        5.341117   0.000000
   10        5.341138   0.000000
   11        9.800577   0.000000
   12        9.800603   0.000000
   13       13.948208   0.000000
   14       13.948241   0.000000
   15       18.071417   0.000000
   16       18.071444   0.000000
   17       20.965693   0.000000
   18       20.965710   0.000000
 
  0.3333333E+00 -0.3333333E+00 -0.1433242E-16  0.4629630E-02
    1      -37.616721   1.000000
    2      -37.616708   1.000000
    3      -12.537176   1.000000
    4      -12.537169   1.000000
    5      -12.436217   1.000000
    6      -12.436206   1.000000
    7      -12.270564   1.000000
    8      -12.270557   1.000000
    9        7.538573   0.000000
   10        7.538601   0.000000
   11        9.754522   0.000000
   12        9.754550   0.000000
   13       10.381964   0.000000
   14       10.381990   0.000000
   15       17.049494   0.000000
   16       17.049516   0.000000
   17       18.433973   0.000000
   18       18.433989   0.000000
 
  0.5000000E+00 -0.3333333E+00 -0.1387779E-16  0.4629630E-02
    1      -37.603830   1.000000
    2      -37.603817   1.000000
    3      -12.351447   1.000000
    4      -12.351435   1.000000
    5      -12.260738   1.000000
    6      -12.260731   1.000000
    7      -12.202185   1.000000
    8      -12.202177   1.000000
    9        6.794661   0.000000
   10        6.794685   0.000000
   11       10.353964   0.000000
   12       10.353994   0.000000
   13       11.617894   0.000000
   14       11.617924   0.000000
   15       16.624150   0.000000
   16       16.624170   0.000000
   17       17.102133   0.000000
   18       17.102155   0.000000
 
 -0.3333333E+00 -0.3333333E+00  0.0000000E+00  0.4629630E-02
    1      -37.625730   1.000000
    2      -37.625717   1.000000
    3      -12.404049   1.000000
    4      -12.404041   1.000000
    5      -12.267999   1.000000
    6      -12.267991   1.000000
    7      -12.219894   1.000000
    8      -12.219885   1.000000
    9        4.666074   0.000000
   10        4.666094   0.000000
   11       12.719111   0.000000
   12       12.719145   0.000000
   13       13.336173   0.000000
   14       13.336207   0.000000
   15       16.734338   0.000000
   16       16.734355   0.000000
   17       16.744356   0.000000
   18       16.744371   0.000000
 
 -0.1666667E+00 -0.3333333E+00 -0.2775558E-16  0.4629630E-02
    1      -37.646531   1.000000
    2      -37.646518   1.000000
    3      -12.433619   1.000000
    4      -12.433610   1.000000
    5      -12.278687   1.000000
    6      -12.278678   1.000000
    7      -12.221949   1.000000
    8      -12.221942   1.000000
    9        3.612430   0.000000
   10        3.612449   0.000000
   11       12.350995   0.000000
   12       12.351024   0.000000
   13       15.438057   0.000000
   14       15.438097   0.000000
   15       17.364577   0.000000
   16       17.364601   0.000000
   17       19.111839   0.000000
   18       19.111868   0.000000
 
  0.0000000E+00 -0.1666667E+00 -0.6938894E-17  0.4629630E-02
    1      -37.685986   1.000000
    2      -37.685973   1.000000
    3      -12.440188   1.000000
    4      -12.440177   1.000000
    5      -12.197616   1.000000
    6      -12.197605   1.000000
    7      -12.141419   1.000000
    8      -12.141405   1.000000
    9        1.717802   0.000000
   10        1.717819   0.000000
   11       15.093451   0.000000
   12       15.093483   0.000000
   13       19.092946   0.000000
   14       19.092955   0.000000
   15       19.094433   0.000000
   16       19.094437   0.000000
   17       21.005023   0.000000
   18       21.005074   0.000000
 
  0.1666667E+00 -0.1666667E+00 -0.7166211E-17  0.4629630E-02
    1      -37.655994   1.000000
    2      -37.655981   1.000000
    3      -12.352673   1.000000
    4      -12.352660   1.000000
    5      -12.264195   1.000000
    6      -12.264188   1.000000
    7      -12.158590   1.000000
    8      -12.158582   1.000000
    9        2.949591   0.000000
   10        2.949609   0.000000
   11       13.342234   0.000000
   12       13.342265   0.000000
   13       15.049889   0.000000
   14       15.049923   0.000000
   15       19.785154   0.000000
   16       19.785183   0.000000
   17       21.037808   0.000000
   18       21.037841   0.000000
 
  0.3333333E+00 -0.1666667E+00 -0.6938894E-17  0.4629630E-02
    1      -37.616097   1.000000
    2      -37.616083   1.000000
    3      -12.338962   1.000000
    4      -12.338952   1.000000
    5      -12.133904   1.000000
    6      -12.133895   1.000000
    7      -12.034931   1.000000
    8      -12.034921   1.000000
    9        5.341117   0.000000
   10        5.341138   0.000000
   11        9.800576   0.000000
   12        9.800601   0.000000
   13       13.948206   0.000000
   14       13.948239   0.000000
   15       18.071414   0.000000
   16       18.071440   0.000000
   17       20.965689   0.000000
   18       20.965706   0.000000
 
  0.5000000E+00 -0.1666667E+00  0.0000000E+00  0.4629630E-02
    1      -37.619131   1.000000
    2      -37.619117   1.000000
    3      -12.417087   1.000000
    4      -12.417075   1.000000
    5      -12.245929   1.000000
    6      -12.245916   1.000000
    7      -12.193032   1.000000
    8      -12.193017   1.000000
    9        6.302372   0.000000
   10        6.302395   0.000000
   11        8.560735   0.000000
   12        8.560758   0.000000
   13       14.323494   0.000000
   14       14.323530   0.000000
   15       17.308457   0.000000
   16       17.308481   0.000000
   17       19.737913   0.000000
   18       19.737930   0.000000
 
 -0.3333333E+00 -0.1666667E+00  0.2775558E-16  0.4629630E-02
    1      -37.646532   1.000000
    2      -37.646518   1.000000
    3      -12.433618   1.000000
    4      -12.433612   1.000000
    5      -12.278685   1.000000
    6      -12.278675   1.000000
    7      -12.221948   1.000000
    8      -12.221939   1.000000
    9        3.612428   0.000000
   10        3.612447   0.000000
   11       12.350999   0.000000
   12       12.351029   0.000000
   13       15.438055   0.000000
   14       15.438095   0.000000
   15       17.364572   0.000000
   16       17.364596   0.000000
   17       19.111832   0.000000
   18       19.111860   0.000000
 
 -0.1666667E+00 -0.1666667E+00  0.1387779E-16  0.4629630E-02
    1      -37.664184   1.000000
    2      -37.664171   1.000000
    3      -12.255839   1.000000
    4      -12.255832   1.000000
    5      -12.076627   1.000000
    6      -12.076619   1.000000
    7      -12.024859   1.000000
    8      -12.024850   1.000000
    9        1.965696   0.000000
   10        1.965713   0.000000
   11       15.843970   0.000000
   12       15.844006   0.000000
   13       17.978335   0.000000
   14       17.978353   0.000000
   15       17.983464   0.000000
   16       17.983481   0.000000
   17       18.154753   0.000000
   18       18.154793   0.000000
 
  0.0000000E+00  0.0000000E+00  0.1666667E+00  0.4629630E-02
    1      -37.685985   1.000000
    2      -37.685972   1.000000
    3      -12.440292   1.000000
    4      -12.440282   1.000000
    5      -12.197567   1.000000
    6      -12.197554   1.000000
    7      -12.141361   1.000000
    8      -12.141351   1.000000
    9        1.717806   0.000000
   10        1.717822   0.000000
   11       15.093433   0.000000
   12       15.093466   0.000000
   13       19.092840   0.000000
   14       19.092853   0.000000
   15       19.094323   0.000000
   16       19.094339   0.000000
   17       21.004884   0.000000
   18       21.004936   0.000000
 
  0.1666667E+00 -0.1387779E-16  0.1666667E+00  0.4629630E-02
    1      -37.664184   1.000000
    2      -37.664171   1.000000
    3      -12.255832   1.000000
    4      -12.255829   1.000000
    5      -12.076628   1.000000
    6      -12.076619   1.000000
    7      -12.024861   1.000000
    8      -12.024850   1.000000
    9        1.965695   0.000000
   10        1.965712   0.000000
   11       15.843963   0.000000
   12       15.844000   0.000000
   13       17.978337   0.000000
   14       17.978359   0.000000
   15       17.983464   0.000000
   16       17.983491   0.000000
   17       18.154744   0.000000
   18       18.154784   0.000000
 
  0.3333333E+00  0.0000000E+00  0.1666667E+00  0.4629630E-02
    1      -37.646532   1.000000
    2      -37.646519   1.000000
    3      -12.433586   1.000000
    4      -12.433582   1.000000
    5      -12.278739   1.000000
    6      -12.278728   1.000000
    7      -12.221925   1.000000
    8      -12.221913   1.000000
    9        3.612423   0.000000
   10        3.612442   0.000000
   11       12.351057   0.000000
   12       12.351086   0.000000
   13       15.437958   0.000000
   14       15.438000   0.000000
   15       17.364599   0.000000
   16       17.364620   0.000000
   17       19.111956   0.000000
   18       19.111986   0.000000
 
  0.5000000E+00  0.0000000E+00  0.1666667E+00  0.4629630E-02
    1      -37.619130   1.000000
    2      -37.619117   1.000000
    3      -12.417124   1.000000
    4      -12.417112   1.000000
    5      -12.245924   1.000000
    6      -12.245912   1.000000
    7      -12.193001   1.000000
    8      -12.192986   1.000000
    9        6.302354   0.000000
   10        6.302377   0.000000
   11        8.560775   0.000000
   12        8.560798   0.000000
   13       14.323324   0.000000
   14       14.323362   0.000000
   15       17.308515   0.000000
   16       17.308537   0.000000
   17       19.738254   0.000000
   18       19.738271   0.000000
 
 -0.3333333E+00  0.0000000E+00  0.1666667E+00  0.4629630E-02
    1      -37.616097   1.000000
    2      -37.616083   1.000000
    3      -12.338964   1.000000
    4      -12.338955   1.000000
    5      -12.133966   1.000000
    6      -12.133959   1.000000
    7      -12.034864   1.000000
    8      -12.034852   1.000000
    9        5.341138   0.000000
   10        5.341159   0.000000
   11        9.800550   0.000000
   12        9.800576   0.000000
   13       13.948029   0.000000
   14       13.948064   0.000000
   15       18.071491   0.000000
   16       18.071515   0.000000
   17       20.966178   0.000000
   18       20.966193   0.000000
 
 -0.1666667E+00  0.1387779E-16  0.1666667E+00  0.4629630E-02
    1      -37.655994   1.000000
    2      -37.655981   1.000000
    3      -12.352731   1.000000
    4      -12.352719   1.000000
    5      -12.264210   1.000000
    6      -12.264204   1.000000
    7      -12.158516   1.000000
    8      -12.158507   1.000000
    9        2.949593   0.000000
   10        2.949611   0.000000
   11       13.342249   0.000000
   12       13.342280   0.000000
   13       15.049675   0.000000
   14       15.049710   0.000000
   15       19.785201   0.000000
   16       19.785229   0.000000
   17       21.037732   0.000000
   18       21.037762   0.000000
 
  0.0000000E+00  0.1666667E+00  0.1666667E+00  0.4629630E-02
    1      -37.664184   1.000000
    2      -37.664171   1.000000
    3      -12.255831   1.000000
    4      -12.255819   1.000000
    5      -12.076629   1.000000
    6      -12.076625   1.000000
    7      -12.024863   1.000000
    8      -12.024857   1.000000
    9        1.965695   0.000000
   10        1.965712   0.000000
   11       15.843985   0.000000
   12       15.844020   0.000000
   13       17.978331   0.000000
   14       17.978345   0.000000
   15       17.983459   0.000000
   16       17.983475   0.000000
   17       18.154743   0.000000
   18       18.154782   0.000000
 
  0.1666667E+00  0.1666667E+00  0.1666667E+00  0.4629630E-02
    1      -37.685986   1.000000
    2      -37.685973   1.000000
    3      -12.440126   1.000000
    4      -12.440108   1.000000
    5      -12.197645   1.000000
    6      -12.197631   1.000000
    7      -12.141451   1.000000
    8      -12.141437   1.000000
    9        1.717798   0.000000
   10        1.717815   0.000000
   11       15.093435   0.000000
   12       15.093466   0.000000
   13       19.092975   0.000000
   14       19.093010   0.000000
   15       19.094458   0.000000
   16       19.094493   0.000000
   17       21.005066   0.000000
   18       21.005093   0.000000
 
  0.3333333E+00  0.1666667E+00  0.1666667E+00  0.4629630E-02
    1      -37.655993   1.000000
    2      -37.655980   1.000000
    3      -12.352652   1.000000
    4      -12.352639   1.000000
    5      -12.264185   1.000000
    6      -12.264175   1.000000
    7      -12.158641   1.000000
    8      -12.158627   1.000000
    9        2.949590   0.000000
   10        2.949607   0.000000
   11       13.342210   0.000000
   12       13.342241   0.000000
   13       15.049978   0.000000
   14       15.050006   0.000000
   15       19.785128   0.000000
   16       19.785168   0.000000
   17       21.037850   0.000000
   18       21.037887   0.000000
 
  0.5000000E+00  0.1666667E+00  0.1666667E+00  0.4629630E-02
    1      -37.616096   1.000000
    2      -37.616083   1.000000
    3      -12.338968   1.000000
    4      -12.338959   1.000000
    5      -12.133862   1.000000