 vasp.5.4.4.18Apr17-6-g9f103f2a35 (build Jul 09 2018 16:43:14) complex          
  
 executed on             LinuxIFC date 2018.11.29  20:43:01
 running on   64 total cores
 distrk:  each k-point on   16 cores,    4 groups
 distr:  one band on NCORES_PER_BAND=   4 cores,    4 groups


--------------------------------------------------------------------------------------------------------


 INCAR:
 POTCAR:    PAW_PBE Ne_GW 22Sep2014               

 ----------------------------------------------------------------------------- 
|                                                                             |
|           W    W    AA    RRRRR   N    N  II  N    N   GGGG   !!!           |
|           W    W   A  A   R    R  NN   N  II  NN   N  G    G  !!!           |
|           W    W  A    A  R    R  N N  N  II  N N  N  G       !!!           |
|           W WW W  AAAAAA  RRRRR   N  N N  II  N  N N  G  GGG   !            |
|           WW  WW  A    A  R   R   N   NN  II  N   NN  G    G                |
|           W    W  A    A  R    R  N    N  II  N    N   GGGG   !!!           |
|                                                                             |
|      You have enabled k-point parallelism (KPAR>1).                         |
|      This developmental code was originally  written by Paul Kent at ORNL,  |
|      and carefully double checked in Vienna.                                |
|      GW as well as linear response parallelism added by Martijn Marsman     |
|      and Georg Kresse.                                                      |
|      Carefully verify results versus KPAR=1.                                |
|      Report problems to Paul Kent and Vienna.                               |
|                                                                             |
 ----------------------------------------------------------------------------- 

 POTCAR:    PAW_PBE Ne_GW 22Sep2014               
   VRHFIN =Ne: s2p6                                                             
   LEXCH  = PE                                                                  
   EATOM  =   955.3367 eV,   70.2153 Ry                                         
                                                                                
   TITEL  = PAW_PBE Ne_GW 22Sep2014                                             
   LULTRA =        F    use ultrasoft PP ?                                      
   IUNSCR =        1    unscreen: 0-lin 1-nonlin 2-no                           
   RPACOR =    0.800    partial core radius                                     
   POMASS =   20.180; ZVAL   =    8.000    mass and valenz                      
   RCORE  =    1.600    outmost cutoff radius                                   
   RWIGS  =    1.600; RWIGS  =    0.847    wigner-seitz radius (au A)           
   ENMAX  =  432.275; ENMIN  =  324.206 eV                                      
   RCLOC  =    1.003    cutoff for local pot                                    
   LCOR   =        T    correct aug charges                                     
   LPAW   =        T    paw PP                                                  
   EAUG   =  755.753                                                            
   RMAX   =    1.638    core radius for proj-oper                               
   RAUG   =    1.300    factor for augmentation sphere                          
   RDEP   =    1.674    radius for radial grids                                 
   RDEPT  =    1.500    core radius for aug-charge                              
                                                                                
   Atomic configuration                                                         
    5 entries                                                                   
     n  l   j            E        occ.                                          
     1  0  0.50      -830.7932   2.0000                                         
     2  0  0.50       -36.4050   2.0000                                         
     2  1  0.50       -13.3338   6.0000                                         
     3  2  1.50       -13.6058   0.0000                                         
     4  3  2.50        -1.3606   0.0000                                         
   Description                                                                  
     l       E           TYP  RCUT    TYP  RCUT                                 
     0    -36.4049700     23  1.400                                             
     0    -40.8174780     23  1.400                                             
     0    258.5106940     23  1.400                                             
     1    -13.3337612     23  1.500                                             
     1     -9.5240782     23  1.500                                             
     1    190.4815640     23  1.500                                             
     2     40.8174780     23  1.500                                             
     2    190.4815640     23  1.600                                             
  local pseudopotential read in
  partial core-charges read in
  partial kinetic energy density read in
  kinetic energy density of atom read in
  atomic valenz-charges read in
  non local Contribution for L=           0  read in
    real space projection operators read in
  non local Contribution for L=           0  read in
    real space projection operators read in
  non local Contribution for L=           0  read in
    real space projection operators read in
  non local Contribution for L=           1  read in
    real space projection operators read in
  non local Contribution for L=           1  read in
    real space projection operators read in
  non local Contribution for L=           1  read in
    real space projection operators read in
  non local Contribution for L=           2  read in
    real space projection operators read in
  non local Contribution for L=           2  read in
    real space projection operators read in
    PAW grid and wavefunctions read in
 
   number of l-projection  operators is LMAX  =           8
   number of lm-projection operators is LMMAX =          22
 
  PAW_PBE Ne_GW 22Sep2014               :
 energy of atom  1       EATOM= -955.3367
 kinetic energy error for atom=    2.6586 (will be added to EATOM!!)
 
 
 POSCAR: Ne_FCC                                  
  positions in direct lattice
  velocities in cartesian coordinates

 METAGGA = SCAN     LMAXTAU =  0    LMIXTAU =  F

 exchange correlation table for  LEXCH =        8
   RHO(1)=    0.500       N(1)  =     2000
   RHO(2)=  100.500       N(2)  =     4000
 


--------------------------------------------------------------------------------------------------------


 ion  position               nearest neighbor table
   1  0.000  0.000  0.000-
 

IMPORTANT INFORMATION: All symmetrisations will be switched off!
NOSYMM: (Re-)initialisation of all symmetry stuff for point group C_1.

 
 
 KPOINTS: k-points                                

Automatic generation of k-mesh.
Space group operators:
 irot       det(A)        alpha          n_x          n_y          n_z        tau_x        tau_y        tau_z
    1     1.000000     0.000000     1.000000     0.000000     0.000000     0.000000     0.000000     0.000000
 
 Subroutine IBZKPT returns following result:
 ===========================================
 
 Found    216 irreducible k-points:
 
 Following reciprocal coordinates:
            Coordinates               Weight
  0.000000  0.000000  0.000000      1.000000
  0.166667  0.000000  0.000000      1.000000
  0.333333 -0.000000  0.000000      1.000000
  0.500000  0.000000 -0.000000      1.000000
 -0.333333  0.000000  0.000000      1.000000
 -0.166667  0.000000 -0.000000      1.000000
  0.000000  0.166667  0.000000      1.000000
  0.166667  0.166667  0.000000      1.000000
  0.333333  0.166667  0.000000      1.000000
  0.500000  0.166667  0.000000      1.000000
 -0.333333  0.166667 -0.000000      1.000000
 -0.166667  0.166667 -0.000000      1.000000
  0.000000  0.333333  0.000000      1.000000
  0.166667  0.333333  0.000000      1.000000
  0.333333  0.333333  0.000000      1.000000
  0.500000  0.333333  0.000000      1.000000
 -0.333333  0.333333 -0.000000      1.000000
 -0.166667  0.333333  0.000000      1.000000
  0.000000  0.500000  0.000000      1.000000
  0.166667  0.500000  0.000000      1.000000
  0.333333  0.500000  0.000000      1.000000
  0.500000  0.500000  0.000000      1.000000
 -0.333333  0.500000  0.000000      1.000000
 -0.166667  0.500000  0.000000      1.000000
  0.000000 -0.333333 -0.000000      1.000000
  0.166667 -0.333333 -0.000000      1.000000
  0.333333 -0.333333  0.000000      1.000000
  0.500000 -0.333333  0.000000      1.000000
 -0.333333 -0.333333 -0.000000      1.000000
 -0.166667 -0.333333 -0.000000      1.000000
  0.000000 -0.166667 -0.000000      1.000000
  0.166667 -0.166667  0.000000      1.000000
  0.333333 -0.166667  0.000000      1.000000
  0.500000 -0.166667  0.000000      1.000000
 -0.333333 -0.166667 -0.000000      1.000000
 -0.166667 -0.166667 -0.000000      1.000000
  0.000000  0.000000  0.166667      1.000000
  0.166667  0.000000  0.166667      1.000000
  0.333333 -0.000000  0.166667      1.000000
  0.500000  0.000000  0.166667      1.000000
 -0.333333  0.000000  0.166667      1.000000
 -0.166667  0.000000  0.166667      1.000000
  0.000000  0.166667  0.166667      1.000000
  0.166667  0.166667  0.166667      1.000000
  0.333333  0.166667  0.166667      1.000000
  0.500000  0.166667  0.166667      1.000000
 -0.333333  0.166667  0.166667      1.000000
 -0.166667  0.166667  0.166667      1.000000
  0.000000  0.333333  0.166667      1.000000
  0.166667  0.333333  0.166667      1.000000
  0.333333  0.333333  0.166667      1.000000
  0.500000  0.333333  0.166667      1.000000
 -0.333333  0.333333  0.166667      1.000000
 -0.166667  0.333333  0.166667      1.000000
  0.000000  0.500000  0.166667      1.000000
  0.166667  0.500000  0.166667      1.000000
  0.333333  0.500000  0.166667      1.000000
  0.500000  0.500000  0.166667      1.000000
 -0.333333  0.500000  0.166667      1.000000
 -0.166667  0.500000  0.166667      1.000000
  0.000000 -0.333333  0.166667      1.000000
  0.166667 -0.333333  0.166667      1.000000
  0.333333 -0.333333  0.166667      1.000000
  0.500000 -0.333333  0.166667      1.000000
 -0.333333 -0.333333  0.166667      1.000000
 -0.166667 -0.333333  0.166667      1.000000
  0.000000 -0.166667  0.166667      1.000000
  0.166667 -0.166667  0.166667      1.000000
  0.333333 -0.166667  0.166667      1.000000
  0.500000 -0.166667  0.166667      1.000000
 -0.333333 -0.166667  0.166667      1.000000
 -0.166667 -0.166667  0.166667      1.000000
  0.000000  0.000000  0.333333      1.000000
  0.166667  0.000000  0.333333      1.000000
  0.333333 -0.000000  0.333333      1.000000
  0.500000  0.000000  0.333333      1.000000
 -0.333333  0.000000  0.333333      1.000000
 -0.166667  0.000000  0.333333      1.000000
  0.000000  0.166667  0.333333      1.000000
  0.166667  0.166667  0.333333      1.000000
  0.333333  0.166667  0.333333      1.000000
  0.500000  0.166667  0.333333      1.000000
 -0.333333  0.166667  0.333333      1.000000
 -0.166667  0.166667  0.333333      1.000000
  0.000000  0.333333  0.333333      1.000000
  0.166667  0.333333  0.333333      1.000000
  0.333333  0.333333  0.333333      1.000000
  0.500000  0.333333  0.333333      1.000000
 -0.333333  0.333333  0.333333      1.000000
 -0.166667  0.333333  0.333333      1.000000
  0.000000  0.500000  0.333333      1.000000
  0.166667  0.500000  0.333333      1.000000
  0.333333  0.500000  0.333333      1.000000
  0.500000  0.500000  0.333333      1.000000
 -0.333333  0.500000  0.333333      1.000000
 -0.166667  0.500000  0.333333      1.000000
  0.000000 -0.333333  0.333333      1.000000
  0.166667 -0.333333  0.333333      1.000000
  0.333333 -0.333333  0.333333      1.000000
  0.500000 -0.333333  0.333333      1.000000
 -0.333333 -0.333333  0.333333      1.000000
 -0.166667 -0.333333  0.333333      1.000000
  0.000000 -0.166667  0.333333      1.000000
  0.166667 -0.166667  0.333333      1.000000
  0.333333 -0.166667  0.333333      1.000000
  0.500000 -0.166667  0.333333      1.000000
 -0.333333 -0.166667  0.333333      1.000000
 -0.166667 -0.166667  0.333333      1.000000
  0.000000  0.000000  0.500000      1.000000
  0.166667  0.000000  0.500000      1.000000
  0.333333 -0.000000  0.500000      1.000000
  0.500000  0.000000  0.500000      1.000000
 -0.333333  0.000000  0.500000      1.000000
 -0.166667  0.000000  0.500000      1.000000
  0.000000  0.166667  0.500000      1.000000
  0.166667  0.166667  0.500000      1.000000
  0.333333  0.166667  0.500000      1.000000
  0.500000  0.166667  0.500000      1.000000
 -0.333333  0.166667  0.500000      1.000000
 -0.166667  0.166667  0.500000      1.000000
  0.000000  0.333333  0.500000      1.000000
  0.166667  0.333333  0.500000      1.000000
  0.333333  0.333333  0.500000      1.000000
  0.500000  0.333333  0.500000      1.000000
 -0.333333  0.333333  0.500000      1.000000
 -0.166667  0.333333  0.500000      1.000000
  0.000000  0.500000  0.500000      1.000000
  0.166667  0.500000  0.500000      1.000000
  0.333333  0.500000  0.500000      1.000000
  0.500000  0.500000  0.500000      1.000000
 -0.333333  0.500000  0.500000      1.000000
 -0.166667  0.500000  0.500000      1.000000
  0.000000 -0.333333  0.500000      1.000000
  0.166667 -0.333333  0.500000      1.000000
  0.333333 -0.333333  0.500000      1.000000
  0.500000 -0.333333  0.500000      1.000000
 -0.333333 -0.333333  0.500000      1.000000
 -0.166667 -0.333333  0.500000      1.000000
  0.000000 -0.166667  0.500000      1.000000
  0.166667 -0.166667  0.500000      1.000000
  0.333333 -0.166667  0.500000      1.000000
  0.500000 -0.166667  0.500000      1.000000
 -0.333333 -0.166667  0.500000      1.000000
 -0.166667 -0.166667  0.500000      1.000000
  0.000000  0.000000 -0.333333      1.000000
  0.166667  0.000000 -0.333333      1.000000
  0.333333 -0.000000 -0.333333      1.000000
  0.500000  0.000000 -0.333333      1.000000
 -0.333333  0.000000 -0.333333      1.000000
 -0.166667  0.000000 -0.333333      1.000000
  0.000000  0.166667 -0.333333      1.000000
  0.166667  0.166667 -0.333333      1.000000
  0.333333  0.166667 -0.333333      1.000000
  0.500000  0.166667 -0.333333      1.000000
 -0.333333  0.166667 -0.333333      1.000000
 -0.166667  0.166667 -0.333333      1.000000
  0.000000  0.333333 -0.333333      1.000000
  0.166667  0.333333 -0.333333      1.000000
  0.333333  0.333333 -0.333333      1.000000
  0.500000  0.333333 -0.333333      1.000000
 -0.333333  0.333333 -0.333333      1.000000
 -0.166667  0.333333 -0.333333      1.000000
  0.000000  0.500000 -0.333333      1.000000
  0.166667  0.500000 -0.333333      1.000000
  0.333333  0.500000 -0.333333      1.000000
  0.500000  0.500000 -0.333333      1.000000
 -0.333333  0.500000 -0.333333      1.000000
 -0.166667  0.500000 -0.333333      1.000000
  0.000000 -0.333333 -0.333333      1.000000
  0.166667 -0.333333 -0.333333      1.000000
  0.333333 -0.333333 -0.333333      1.000000
  0.500000 -0.333333 -0.333333      1.000000
 -0.333333 -0.333333 -0.333333      1.000000
 -0.166667 -0.333333 -0.333333      1.000000
  0.000000 -0.166667 -0.333333      1.000000
  0.166667 -0.166667 -0.333333      1.000000
  0.333333 -0.166667 -0.333333      1.000000
  0.500000 -0.166667 -0.333333      1.000000
 -0.333333 -0.166667 -0.333333      1.000000
 -0.166667 -0.166667 -0.333333      1.000000
  0.000000  0.000000 -0.166667      1.000000
  0.166667  0.000000 -0.166667      1.000000
  0.333333 -0.000000 -0.166667      1.000000
  0.500000  0.000000 -0.166667      1.000000
 -0.333333  0.000000 -0.166667      1.000000
 -0.166667  0.000000 -0.166667      1.000000
  0.000000  0.166667 -0.166667      1.000000
  0.166667  0.166667 -0.166667      1.000000
  0.333333  0.166667 -0.166667      1.000000
  0.500000  0.166667 -0.166667      1.000000
 -0.333333  0.166667 -0.166667      1.000000
 -0.166667  0.166667 -0.166667      1.000000
  0.000000  0.333333 -0.166667      1.000000
  0.166667  0.333333 -0.166667      1.000000
  0.333333  0.333333 -0.166667      1.000000
  0.500000  0.333333 -0.166667      1.000000
 -0.333333  0.333333 -0.166667      1.000000
 -0.166667  0.333333 -0.166667      1.000000
  0.000000  0.500000 -0.166667      1.000000
  0.166667  0.500000 -0.166667      1.000000
  0.333333  0.500000 -0.166667      1.000000
  0.500000  0.500000 -0.166667      1.000000
 -0.333333  0.500000 -0.166667      1.000000
 -0.166667  0.500000 -0.166667      1.000000
  0.000000 -0.333333 -0.166667      1.000000
  0.166667 -0.333333 -0.166667      1.000000
  0.333333 -0.333333 -0.166667      1.000000
  0.500000 -0.333333 -0.166667      1.000000
 -0.333333 -0.333333 -0.166667      1.000000
 -0.166667 -0.333333 -0.166667      1.000000
  0.000000 -0.166667 -0.166667      1.000000
  0.166667 -0.166667 -0.166667      1.000000
  0.333333 -0.166667 -0.166667      1.000000
  0.500000 -0.166667 -0.166667      1.000000
 -0.333333 -0.166667 -0.166667      1.000000
 -0.166667 -0.166667 -0.166667      1.000000
 
 Following cartesian coordinates:
            Coordinates               Weight
  0.000000  0.000000  0.000000      1.000000
  0.056037 -0.032353 -0.022877      1.000000
  0.112074 -0.064706 -0.045754      1.000000
  0.168111 -0.097059 -0.068631      1.000000
 -0.112074  0.064706  0.045754      1.000000
 -0.056037  0.032353  0.022877      1.000000
  0.000000  0.064706 -0.022877      1.000000
  0.056037  0.032353 -0.045754      1.000000
  0.112074  0.000000 -0.068631      1.000000
  0.168111 -0.032353 -0.091508      1.000000
 -0.112074  0.129412  0.022877      1.000000
 -0.056037  0.097059  0.000000      1.000000
  0.000000  0.129412 -0.045754      1.000000
  0.056037  0.097059 -0.068631      1.000000
  0.112074  0.064706 -0.091508      1.000000
  0.168111  0.032353 -0.114385      1.000000
 -0.112074  0.194118  0.000000      1.000000
 -0.056037  0.161765 -0.022877      1.000000
  0.000000  0.194118 -0.068631      1.000000
  0.056037  0.161765 -0.091508      1.000000
  0.112074  0.129412 -0.114385      1.000000
  0.168111  0.097059 -0.137262      1.000000
 -0.112074  0.258824 -0.022877      1.000000
 -0.056037  0.226471 -0.045754      1.000000
  0.000000 -0.129412  0.045754      1.000000
  0.056037 -0.161765  0.022877      1.000000
  0.112074 -0.194118 -0.000000      1.000000
  0.168111 -0.226471 -0.022877      1.000000
 -0.112074 -0.064706  0.091508      1.000000
 -0.056037 -0.097059  0.068631      1.000000
  0.000000 -0.064706  0.022877      1.000000
  0.056037 -0.097059 -0.000000      1.000000
  0.112074 -0.129412 -0.022877      1.000000
  0.168111 -0.161765 -0.045754      1.000000
 -0.112074 -0.000000  0.068631      1.000000
 -0.056037 -0.032353  0.045754      1.000000
  0.000000  0.000000  0.068631      1.000000
  0.056037 -0.032353  0.045754      1.000000
  0.112074 -0.064706  0.022877      1.000000
  0.168111 -0.097059 -0.000000      1.000000
 -0.112074  0.064706  0.114385      1.000000
 -0.056037  0.032353  0.091508      1.000000
  0.000000  0.064706  0.045754      1.000000
  0.056037  0.032353  0.022877      1.000000
  0.112074  0.000000  0.000000      1.000000
  0.168111 -0.032353 -0.022877      1.000000
 -0.112074  0.129412  0.091508      1.000000
 -0.056037  0.097059  0.068631      1.000000
  0.000000  0.129412  0.022877      1.000000
  0.056037  0.097059  0.000000      1.000000
  0.112074  0.064706 -0.022877      1.000000
  0.168111  0.032353 -0.045754      1.000000
 -0.112074  0.194118  0.068631      1.000000
 -0.056037  0.161765  0.045754      1.000000
  0.000000  0.194118  0.000000      1.000000
  0.056037  0.161765 -0.022877      1.000000
  0.112074  0.129412 -0.045754      1.000000
  0.168111  0.097059 -0.068631      1.000000
 -0.112074  0.258824  0.045754      1.000000
 -0.056037  0.226471  0.022877      1.000000
  0.000000 -0.129412  0.114385      1.000000
  0.056037 -0.161765  0.091508      1.000000
  0.112074 -0.194118  0.068631      1.000000
  0.168111 -0.226471  0.045754      1.000000
 -0.112074 -0.064706  0.160139      1.000000
 -0.056037 -0.097059  0.137262      1.000000
  0.000000 -0.064706  0.091508      1.000000
  0.056037 -0.097059  0.068631      1.000000
  0.112074 -0.129412  0.045754      1.000000
  0.168111 -0.161765  0.022877      1.000000
 -0.112074 -0.000000  0.137262      1.000000
 -0.056037 -0.032353  0.114385      1.000000
  0.000000  0.000000  0.137262      1.000000
  0.056037 -0.032353  0.114385      1.000000
  0.112074 -0.064706  0.091508      1.000000
  0.168111 -0.097059  0.068631      1.000000
 -0.112074  0.064706  0.183016      1.000000
 -0.056037  0.032353  0.160139      1.000000
  0.000000  0.064706  0.114385      1.000000
  0.056037  0.032353  0.091508      1.000000
  0.112074  0.000000  0.068631      1.000000
  0.168111 -0.032353  0.045754      1.000000
 -0.112074  0.129412  0.160139      1.000000
 -0.056037  0.097059  0.137262      1.000000
  0.000000  0.129412  0.091508      1.000000
  0.056037  0.097059  0.068631      1.000000
  0.112074  0.064706  0.045754      1.000000
  0.168111  0.032353  0.022877      1.000000
 -0.112074  0.194118  0.137262      1.000000
 -0.056037  0.161765  0.114385      1.000000
  0.000000  0.194118  0.068631      1.000000
  0.056037  0.161765  0.045754      1.000000
  0.112074  0.129412  0.022877      1.000000
  0.168111  0.097059  0.000000      1.000000
 -0.112074  0.258824  0.114385      1.000000
 -0.056037  0.226471  0.091508      1.000000
  0.000000 -0.129412  0.183016      1.000000
  0.056037 -0.161765  0.160139      1.000000
  0.112074 -0.194118  0.137262      1.000000
  0.168111 -0.226471  0.114385      1.000000
 -0.112074 -0.064706  0.228770      1.000000
 -0.056037 -0.097059  0.205893      1.000000
  0.000000 -0.064706  0.160139      1.000000
  0.056037 -0.097059  0.137262      1.000000
  0.112074 -0.129412  0.114385      1.000000
  0.168111 -0.161765  0.091508      1.000000
 -0.112074 -0.000000  0.205893      1.000000
 -0.056037 -0.032353  0.183016      1.000000
  0.000000  0.000000  0.205893      1.000000
  0.056037 -0.032353  0.183016      1.000000
  0.112074 -0.064706  0.160139      1.000000
  0.168111 -0.097059  0.137262      1.000000
 -0.112074  0.064706  0.251647      1.000000
 -0.056037  0.032353  0.228770      1.000000
  0.000000  0.064706  0.183016      1.000000
  0.056037  0.032353  0.160139      1.000000
  0.112074  0.000000  0.137262      1.000000
  0.168111 -0.032353  0.114385      1.000000
 -0.112074  0.129412  0.228770      1.000000
 -0.056037  0.097059  0.205893      1.000000
  0.000000  0.129412  0.160139      1.000000
  0.056037  0.097059  0.137262      1.000000
  0.112074  0.064706  0.114385      1.000000
  0.168111  0.032353  0.091508      1.000000
 -0.112074  0.194118  0.205893      1.000000
 -0.056037  0.161765  0.183016      1.000000
  0.000000  0.194118  0.137262      1.000000
  0.056037  0.161765  0.114385      1.000000
  0.112074  0.129412  0.091508      1.000000
  0.168111  0.097059  0.068631      1.000000
 -0.112074  0.258824  0.183016      1.000000
 -0.056037  0.226471  0.160139      1.000000
  0.000000 -0.129412  0.251647      1.000000
  0.056037 -0.161765  0.228770      1.000000
  0.112074 -0.194118  0.205893      1.000000
  0.168111 -0.226471  0.183016      1.000000
 -0.112074 -0.064706  0.297402      1.000000
 -0.056037 -0.097059  0.274525      1.000000
  0.000000 -0.064706  0.228770      1.000000
  0.056037 -0.097059  0.205893      1.000000
  0.112074 -0.129412  0.183016      1.000000
  0.168111 -0.161765  0.160139      1.000000
 -0.112074 -0.000000  0.274525      1.000000
 -0.056037 -0.032353  0.251647      1.000000
  0.000000  0.000000 -0.137262      1.000000
  0.056037 -0.032353 -0.160139      1.000000
  0.112074 -0.064706 -0.183016      1.000000
  0.168111 -0.097059 -0.205893      1.000000
 -0.112074  0.064706 -0.091508      1.000000
 -0.056037  0.032353 -0.114385      1.000000
  0.000000  0.064706 -0.160139      1.000000
  0.056037  0.032353 -0.183016      1.000000
  0.112074  0.000000 -0.205893      1.000000
  0.168111 -0.032353 -0.228770      1.000000
 -0.112074  0.129412 -0.114385      1.000000
 -0.056037  0.097059 -0.137262      1.000000
  0.000000  0.129412 -0.183016      1.000000
  0.056037  0.097059 -0.205893      1.000000
  0.112074  0.064706 -0.228770      1.000000
  0.168111  0.032353 -0.251647      1.000000
 -0.112074  0.194118 -0.137262      1.000000
 -0.056037  0.161765 -0.160139      1.000000
  0.000000  0.194118 -0.205893      1.000000
  0.056037  0.161765 -0.228770      1.000000
  0.112074  0.129412 -0.251647      1.000000
  0.168111  0.097059 -0.274525      1.000000
 -0.112074  0.258824 -0.160139      1.000000
 -0.056037  0.226471 -0.183016      1.000000
  0.000000 -0.129412 -0.091508      1.000000
  0.056037 -0.161765 -0.114385      1.000000
  0.112074 -0.194118 -0.137262      1.000000
  0.168111 -0.226471 -0.160139      1.000000
 -0.112074 -0.064706 -0.045754      1.000000
 -0.056037 -0.097059 -0.068631      1.000000
  0.000000 -0.064706 -0.114385      1.000000
  0.056037 -0.097059 -0.137262      1.000000
  0.112074 -0.129412 -0.160139      1.000000
  0.168111 -0.161765 -0.183016      1.000000
 -0.112074 -0.000000 -0.068631      1.000000
 -0.056037 -0.032353 -0.091508      1.000000
  0.000000  0.000000 -0.068631      1.000000
  0.056037 -0.032353 -0.091508      1.000000
  0.112074 -0.064706 -0.114385      1.000000
  0.168111 -0.097059 -0.137262      1.000000
 -0.112074  0.064706 -0.022877      1.000000
 -0.056037  0.032353 -0.045754      1.000000
  0.000000  0.064706 -0.091508      1.000000
  0.056037  0.032353 -0.114385      1.000000
  0.112074  0.000000 -0.137262      1.000000
  0.168111 -0.032353 -0.160139      1.000000
 -0.112074  0.129412 -0.045754      1.000000
 -0.056037  0.097059 -0.068631      1.000000
  0.000000  0.129412 -0.114385      1.000000
  0.056037  0.097059 -0.137262      1.000000
  0.112074  0.064706 -0.160139      1.000000
  0.168111  0.032353 -0.183016      1.000000
 -0.112074  0.194118 -0.068631      1.000000
 -0.056037  0.161765 -0.091508      1.000000
  0.000000  0.194118 -0.137262      1.000000
  0.056037  0.161765 -0.160139      1.000000
  0.112074  0.129412 -0.183016      1.000000
  0.168111  0.097059 -0.205893      1.000000
 -0.112074  0.258824 -0.091508      1.000000
 -0.056037  0.226471 -0.114385      1.000000
  0.000000 -0.129412 -0.022877      1.000000
  0.056037 -0.161765 -0.045754      1.000000
  0.112074 -0.194118 -0.068631      1.000000
  0.168111 -0.226471 -0.091508      1.000000
 -0.112074 -0.064706  0.022877      1.000000
 -0.056037 -0.097059 -0.000000      1.000000
  0.000000 -0.064706 -0.045754      1.000000
  0.056037 -0.097059 -0.068631      1.000000
  0.112074 -0.129412 -0.091508      1.000000
  0.168111 -0.161765 -0.114385      1.000000
 -0.112074 -0.000000  0.000000      1.000000
 -0.056037 -0.032353 -0.022877      1.000000
 


--------------------------------------------------------------------------------------------------------




 Dimension of arrays:
   k-points           NKPTS =    216   k-points in BZ     NKDIM =    216   number of bands    NBANDS=     20
   number of dos      NEDOS =    301   number of ions     NIONS =      1
   non local maximal  LDIM  =      8   non local SUM 2l+1 LMDIM =     22
   total plane-waves  NPLWV =   5832
   max r-space proj   IRMAX =      1   max aug-charges    IRDMAX=  49916
   dimension x,y,z NGX =    18 NGY =   18 NGZ =   18
   dimension x,y,z NGXF=    36 NGYF=   36 NGZF=   36
   support grid    NGXF=    72 NGYF=   72 NGZF=   72
   ions per type =               1
   NGX,Y,Z   is equivalent  to a cutoff of  10.06, 10.06, 10.06 a.u.
   NGXF,Y,Z  is equivalent  to a cutoff of  20.12, 20.12, 20.12 a.u.

 SYSTEM =  Og_FCC                                  
 POSCAR =  Ne_FCC                                  

 Startparameter for this run:
   NWRITE =      2    write-flag & timer
   PREC   = accura    normal or accurate (medium, high low for compatibility)
   ISTART =      1    job   : 0-new  1-cont  2-samecut
   ICHARG =      0    charge: 1-file 2-atom 10-const
   ISPIN  =      1    spin polarized calculation?
   LNONCOLLINEAR =      T non collinear calculations
   LSORBIT =      T    spin-orbit coupling
   INIWAV =      1    electr: 0-lowe 1-rand  2-diag
   LASPH  =      F    aspherical Exc in radial PAW
   METAGGA=      F    non-selfconsistent MetaGGA calc.

 Electronic Relaxation 1
   ENCUT  =  300.0 eV  22.05 Ry    4.70 a.u.   4.20  4.20  4.20*2*pi/ulx,y,z
   ENINI  =  300.0     initial cutoff
   ENAUG  =  755.8 eV  augmentation charge cutoff
   NELM   =     50;   NELMIN=  2; NELMDL= -5     # of ELM steps 
   EDIFF  = 0.1E-07   stopping-criterion for ELM
   LREAL  =      F    real-space projection
   NLSPLINE    = F    spline interpolate recip. space projectors
   LCOMPAT=      F    compatible to vasp.4.4
   GGA_COMPAT  = F    GGA compatible to vasp.4.4-vasp.4.6
   LMAXPAW     = -100 max onsite density
   LMAXMIX     =    2 max onsite mixed and CHGCAR
   VOSKOWN=      0    Vosko Wilk Nusair interpolation
   ROPT   =    0.00000
 Ionic relaxation
   EDIFFG = 0.1E-04   stopping-criterion for IOM
   NSW    =      1    number of steps for IOM
   NBLOCK =      1;   KBLOCK =      1    inner block; outer block 
   IBRION =     -1    ionic relax: 0-MD 1-quasi-New 2-CG
   NFREE  =      5    steps in history (QN), initial steepest desc. (CG)
   ISIF   =      3    stress and relaxation
   IWAVPR =     10    prediction:  0-non 1-charg 2-wave 3-comb
   ISYM   =      0    0-nonsym 1-usesym 2-fastsym
   LCORR  =      T    Harris-Foulkes like correction to forces

   POTIM  = 0.1000    time-step for ionic-motion
   TEIN   =    0.0    initial temperature
   TEBEG  =    0.0;   TEEND  =   0.0 temperature during run
   SMASS  =  -3.00    Nose mass-parameter (am)
   estimated Nose-frequenzy (Omega)   =  0.10E-29 period in steps =****** mass=  -0.202E-27a.u.
   SCALEE = 1.0000    scale energy and forces
   NPACO  =    256;   APACO  = 16.0  distance and # of slots for P.C.
   PSTRESS=    0.0 pullay stress

  Mass of Ions in am
   POMASS =  20.18
  Ionic Valenz
   ZVAL   =   8.00
  Atomic Wigner-Seitz radii
   RWIGS  =  -1.00
  virtual crystal weights 
   VCA    =   1.00
   NELECT =       8.0000    total number of electrons
   NUPDOWN=      -1.0000    fix difference up-down

 DOS related values:
   EMIN   =  10.00;   EMAX   =-10.00  energy-range for DOS
   EFERMI =   0.00
   ISMEAR =     0;   SIGMA  =   0.00  broadening in eV -4-tet -1-fermi 0-gaus

 Electronic relaxation 2 (details)
   IALGO  =     38    algorithm
   LDIAG  =      T    sub-space diagonalisation (order eigenvalues)
   LSUBROT=      F    optimize rotation matrix (better conditioning)
   TURBO    =      0    0=normal 1=particle mesh
   IRESTART =      0    0=no restart 2=restart with 2 vectors
   NREBOOT  =      0    no. of reboots
   NMIN     =      0    reboot dimension
   EREF     =   0.00    reference energy to select bands
   IMIX   =      4    mixing-type and parameters
     AMIX     =   0.40;   BMIX     =  1.00
     AMIX_MAG =   1.60;   BMIX_MAG =  1.00
     AMIN     =   0.10
     WC   =   100.;   INIMIX=   1;  MIXPRE=   1;  MAXMIX=  50

 Intra band minimization:
   WEIMIN = 0.0000     energy-eigenvalue tresh-hold
   EBREAK =  0.13E-09  absolut break condition
   DEPER  =   0.30     relativ break condition  

   TIME   =   0.40     timestep for ELM

  volume/ion in A,a.u.               =      18.60       125.55
  Fermi-wavevector in a.u.,A,eV,Ry     =   1.235672  2.335082 20.774542  1.526886
  Thomas-Fermi vector in A             =   2.370312
 
 Write flags
   LWAVE        =      T    write WAVECAR
   LDOWNSAMPLE  =      F    k-point downsampling of WAVECAR
   LCHARG       =      F    write CHGCAR
   LVTOT        =      F    write LOCPOT, total local potential
   LVHAR        =      F    write LOCPOT, Hartree potential only
   LELF         =      F    write electronic localiz. function (ELF)
   LORBIT       =      0    0 simple, 1 ext, 2 COOP (PROOUT), +10 PAW based schemes


 Dipole corrections
   LMONO  =      F    monopole corrections only (constant potential shift)
   LDIPOL =      F    correct potential (dipole corrections)
   IDIPOL =      0    1-x, 2-y, 3-z, 4-all directions 
   EPSILON=  1.0000000 bulk dielectric constant

 Exchange correlation treatment:
   GGA     =    --    GGA type
   LEXCH   =     8    internal setting for exchange type
   VOSKOWN=      0    Vosko Wilk Nusair interpolation
   LHFCALC =     F    Hartree Fock is set to
   LHFONE  =     F    Hartree Fock one center treatment
   AEXX    =    0.0000 exact exchange contribution

 Linear response parameters
   LEPSILON=     F    determine dielectric tensor
   LRPA    =     F    only Hartree local field effects (RPA)
   LNABLA  =     F    use nabla operator in PAW spheres
   LVEL    =     F    velocity operator in full k-point grid
   LINTERFAST=   F  fast interpolation
   KINTER  =     0    interpolate to denser k-point grid
   CSHIFT  =0.1000    complex shift for real part using Kramers Kronig
   OMEGAMAX=  -1.0    maximum frequency
   DEG_THRESHOLD= 0.2000000E-02 threshold for treating states as degnerate
   RTIME   =   -0.100 relaxation time in fs
  (WPLASMAI=    0.000 imaginary part of plasma frequency in eV, 0.658/RTIME)
   DFIELD  = 0.0000000 0.0000000 0.0000000 field for delta impulse in time
 
 Orbital magnetization related:
   ORBITALMAG=     F  switch on orbital magnetization
   LCHIMAG   =     F  perturbation theory with respect to B field
   DQ        =  0.001000  dq finite difference perturbation B field
   LLRAUG    =     F  two centre corrections for induced B field



--------------------------------------------------------------------------------------------------------


 Static calculation
 charge density and potential will be updated during run
 non collinear spin polarized calculation
 Variant of blocked Davidson
 Davidson routine will perform the subspace rotation
 perform sub-space diagonalisation
    after iterative eigenvector-optimisation
 modified Broyden-mixing scheme, WC =      100.0
 initial mixing is a Kerker type mixing with AMIX =  0.4000 and BMIX =      1.0000
 Hartree-type preconditioning will be used
 using additional bands           16
 reciprocal scheme for non local part
 use partial core corrections
 calculate Harris-corrections to forces 
   (improved forces if not selfconsistent)
 use gradient corrections 
 use of overlap-Matrix (Vanderbilt PP)
 Gauss-broadening in eV      SIGMA  =   0.00


--------------------------------------------------------------------------------------------------------


  energy-cutoff  :      300.00
  volume of cell :       18.60
      direct lattice vectors                 reciprocal lattice vectors
     2.974220868  0.000000000  0.000000000     0.336222508 -0.194118156 -0.137262264
     1.487110434  2.575750828  0.000000000     0.000000000  0.388236311 -0.137262264
     1.487110434  0.858583609  2.428441169     0.000000000  0.000000000  0.411786793

  length of vectors
     2.974220868  2.974220868  2.974220868     0.411786793  0.411786793  0.411786793


 
 old parameters found on file WAVECAR:
  energy-cutoff  :      300.00
  volume of cell :       18.60
      direct lattice vectors                 reciprocal lattice vectors
     2.974220868  0.000000000  0.000000000     0.336222508 -0.194118156 -0.137262264
     1.487110434  2.575750828  0.000000000     0.000000000  0.388236311 -0.137262264
     1.487110434  0.858583609  2.428441169     0.000000000  0.000000000  0.411786793

  length of vectors

 
 k-points in units of 2pi/SCALE and weight: k-points                                
   0.00000000  0.00000000  0.00000000       0.005
   0.05603708 -0.03235303 -0.02287704       0.005
   0.11207417 -0.06470605 -0.04575409       0.005
   0.16811125 -0.09705908 -0.06863113       0.005
  -0.11207417  0.06470605  0.04575409       0.005
  -0.05603708  0.03235303  0.02287704       0.005
   0.00000000  0.06470605 -0.02287704       0.005
   0.05603708  0.03235303 -0.04575409       0.005
   0.11207417  0.00000000 -0.06863113       0.005
   0.16811125 -0.03235303 -0.09150818       0.005
  -0.11207417  0.12941210  0.02287704       0.005
  -0.05603708  0.09705908  0.00000000       0.005
   0.00000000  0.12941210 -0.04575409       0.005
   0.05603708  0.09705908 -0.06863113       0.005
   0.11207417  0.06470605 -0.09150818       0.005
   0.16811125  0.03235303 -0.11438522       0.005
  -0.11207417  0.19411816  0.00000000       0.005
  -0.05603708  0.16176513 -0.02287704       0.005
   0.00000000  0.19411816 -0.06863113       0.005
   0.05603708  0.16176513 -0.09150818       0.005
   0.11207417  0.12941210 -0.11438522       0.005
   0.16811125  0.09705908 -0.13726226       0.005
  -0.11207417  0.25882421 -0.02287704       0.005
  -0.05603708  0.22647118 -0.04575409       0.005
   0.00000000 -0.12941210  0.04575409       0.005
   0.05603708 -0.16176513  0.02287704       0.005
   0.11207417 -0.19411816 -0.00000000       0.005
   0.16811125 -0.22647118 -0.02287704       0.005
  -0.11207417 -0.06470605  0.09150818       0.005
  -0.05603708 -0.09705908  0.06863113       0.005
   0.00000000 -0.06470605  0.02287704       0.005
   0.05603708 -0.09705908 -0.00000000       0.005
   0.11207417 -0.12941210 -0.02287704       0.005
   0.16811125 -0.16176513 -0.04575409       0.005
  -0.11207417 -0.00000000  0.06863113       0.005
  -0.05603708 -0.03235303  0.04575409       0.005
   0.00000000  0.00000000  0.06863113       0.005
   0.05603708 -0.03235303  0.04575409       0.005
   0.11207417 -0.06470605  0.02287704       0.005
   0.16811125 -0.09705908 -0.00000000       0.005
  -0.11207417  0.06470605  0.11438522       0.005
  -0.05603708  0.03235303  0.09150818       0.005
   0.00000000  0.06470605  0.04575409       0.005
   0.05603708  0.03235303  0.02287704       0.005
   0.11207417  0.00000000  0.00000000       0.005
   0.16811125 -0.03235303 -0.02287704       0.005
  -0.11207417  0.12941210  0.09150818       0.005
  -0.05603708  0.09705908  0.06863113       0.005
   0.00000000  0.12941210  0.02287704       0.005
   0.05603708  0.09705908  0.00000000       0.005
   0.11207417  0.06470605 -0.02287704       0.005
   0.16811125  0.03235303 -0.04575409       0.005
  -0.11207417  0.19411816  0.06863113       0.005
  -0.05603708  0.16176513  0.04575409       0.005
   0.00000000  0.19411816  0.00000000       0.005
   0.05603708  0.16176513 -0.02287704       0.005
   0.11207417  0.12941210 -0.04575409       0.005
   0.16811125  0.09705908 -0.06863113       0.005
  -0.11207417  0.25882421  0.04575409       0.005
  -0.05603708  0.22647118  0.02287704       0.005
   0.00000000 -0.12941210  0.11438522       0.005
   0.05603708 -0.16176513  0.09150818       0.005
   0.11207417 -0.19411816  0.06863113       0.005
   0.16811125 -0.22647118  0.04575409       0.005
  -0.11207417 -0.06470605  0.16013931       0.005
  -0.05603708 -0.09705908  0.13726226       0.005
   0.00000000 -0.06470605  0.09150818       0.005
   0.05603708 -0.09705908  0.06863113       0.005
   0.11207417 -0.12941210  0.04575409       0.005
   0.16811125 -0.16176513  0.02287704       0.005
  -0.11207417 -0.00000000  0.13726226       0.005
  -0.05603708 -0.03235303  0.11438522       0.005
   0.00000000  0.00000000  0.13726226       0.005
   0.05603708 -0.03235303  0.11438522       0.005
   0.11207417 -0.06470605  0.09150818       0.005
   0.16811125 -0.09705908  0.06863113       0.005
  -0.11207417  0.06470605  0.18301635       0.005
  -0.05603708  0.03235303  0.16013931       0.005
   0.00000000  0.06470605  0.11438522       0.005
   0.05603708  0.03235303  0.09150818       0.005
   0.11207417  0.00000000  0.06863113       0.005
   0.16811125 -0.03235303  0.04575409       0.005
  -0.11207417  0.12941210  0.16013931       0.005
  -0.05603708  0.09705908  0.13726226       0.005
   0.00000000  0.12941210  0.09150818       0.005
   0.05603708  0.09705908  0.06863113       0.005
   0.11207417  0.06470605  0.04575409       0.005
   0.16811125  0.03235303  0.02287704       0.005
  -0.11207417  0.19411816  0.13726226       0.005
  -0.05603708  0.16176513  0.11438522       0.005
   0.00000000  0.19411816  0.06863113       0.005
   0.05603708  0.16176513  0.04575409       0.005
   0.11207417  0.12941210  0.02287704       0.005
   0.16811125  0.09705908  0.00000000       0.005
  -0.11207417  0.25882421  0.11438522       0.005
  -0.05603708  0.22647118  0.09150818       0.005
   0.00000000 -0.12941210  0.18301635       0.005
   0.05603708 -0.16176513  0.16013931       0.005
   0.11207417 -0.19411816  0.13726226       0.005
   0.16811125 -0.22647118  0.11438522       0.005
  -0.11207417 -0.06470605  0.22877044       0.005
  -0.05603708 -0.09705908  0.20589340       0.005
   0.00000000 -0.06470605  0.16013931       0.005
   0.05603708 -0.09705908  0.13726226       0.005
   0.11207417 -0.12941210  0.11438522       0.005
   0.16811125 -0.16176513  0.09150818       0.005
  -0.11207417 -0.00000000  0.20589340       0.005
  -0.05603708 -0.03235303  0.18301635       0.005
   0.00000000  0.00000000  0.20589340       0.005
   0.05603708 -0.03235303  0.18301635       0.005
   0.11207417 -0.06470605  0.16013931       0.005
   0.16811125 -0.09705908  0.13726226       0.005
  -0.11207417  0.06470605  0.25164748       0.005
  -0.05603708  0.03235303  0.22877044       0.005
   0.00000000  0.06470605  0.18301635       0.005
   0.05603708  0.03235303  0.16013931       0.005
   0.11207417  0.00000000  0.13726226       0.005
   0.16811125 -0.03235303  0.11438522       0.005
  -0.11207417  0.12941210  0.22877044       0.005
  -0.05603708  0.09705908  0.20589340       0.005
   0.00000000  0.12941210  0.16013931       0.005
   0.05603708  0.09705908  0.13726226       0.005
   0.11207417  0.06470605  0.11438522       0.005
   0.16811125  0.03235303  0.09150818       0.005
  -0.11207417  0.19411816  0.20589340       0.005
  -0.05603708  0.16176513  0.18301635       0.005
   0.00000000  0.19411816  0.13726226       0.005
   0.05603708  0.16176513  0.11438522       0.005
   0.11207417  0.12941210  0.09150818       0.005
   0.16811125  0.09705908  0.06863113       0.005
  -0.11207417  0.25882421  0.18301635       0.005
  -0.05603708  0.22647118  0.16013931       0.005
   0.00000000 -0.12941210  0.25164748       0.005
   0.05603708 -0.16176513  0.22877044       0.005
   0.11207417 -0.19411816  0.20589340       0.005
   0.16811125 -0.22647118  0.18301635       0.005
  -0.11207417 -0.06470605  0.29740157       0.005
  -0.05603708 -0.09705908  0.27452453       0.005
   0.00000000 -0.06470605  0.22877044       0.005
   0.05603708 -0.09705908  0.20589340       0.005
   0.11207417 -0.12941210  0.18301635       0.005
   0.16811125 -0.16176513  0.16013931       0.005
  -0.11207417 -0.00000000  0.27452453       0.005
  -0.05603708 -0.03235303  0.25164748       0.005
   0.00000000  0.00000000 -0.13726226       0.005
   0.05603708 -0.03235303 -0.16013931       0.005
   0.11207417 -0.06470605 -0.18301635       0.005
   0.16811125 -0.09705908 -0.20589340       0.005
  -0.11207417  0.06470605 -0.09150818       0.005
  -0.05603708  0.03235303 -0.11438522       0.005
   0.00000000  0.06470605 -0.16013931       0.005
   0.05603708  0.03235303 -0.18301635       0.005
   0.11207417  0.00000000 -0.20589340       0.005
   0.16811125 -0.03235303 -0.22877044       0.005
  -0.11207417  0.12941210 -0.11438522       0.005
  -0.05603708  0.09705908 -0.13726226       0.005
   0.00000000  0.12941210 -0.18301635       0.005
   0.05603708  0.09705908 -0.20589340       0.005
   0.11207417  0.06470605 -0.22877044       0.005
   0.16811125  0.03235303 -0.25164748       0.005
  -0.11207417  0.19411816 -0.13726226       0.005
  -0.05603708  0.16176513 -0.16013931       0.005
   0.00000000  0.19411816 -0.20589340       0.005
   0.05603708  0.16176513 -0.22877044       0.005
   0.11207417  0.12941210 -0.25164748       0.005
   0.16811125  0.09705908 -0.27452453       0.005
  -0.11207417  0.25882421 -0.16013931       0.005
  -0.05603708  0.22647118 -0.18301635       0.005
   0.00000000 -0.12941210 -0.09150818       0.005
   0.05603708 -0.16176513 -0.11438522       0.005
   0.11207417 -0.19411816 -0.13726226       0.005
   0.16811125 -0.22647118 -0.16013931       0.005
  -0.11207417 -0.06470605 -0.04575409       0.005
  -0.05603708 -0.09705908 -0.06863113       0.005
   0.00000000 -0.06470605 -0.11438522       0.005
   0.05603708 -0.09705908 -0.13726226       0.005
   0.11207417 -0.12941210 -0.16013931       0.005
   0.16811125 -0.16176513 -0.18301635       0.005
  -0.11207417 -0.00000000 -0.06863113       0.005
  -0.05603708 -0.03235303 -0.09150818       0.005
   0.00000000  0.00000000 -0.06863113       0.005
   0.05603708 -0.03235303 -0.09150818       0.005
   0.11207417 -0.06470605 -0.11438522       0.005
   0.16811125 -0.09705908 -0.13726226       0.005
  -0.11207417  0.06470605 -0.02287704       0.005
  -0.05603708  0.03235303 -0.04575409       0.005
   0.00000000  0.06470605 -0.09150818       0.005
   0.05603708  0.03235303 -0.11438522       0.005
   0.11207417  0.00000000 -0.13726226       0.005
   0.16811125 -0.03235303 -0.16013931       0.005
  -0.11207417  0.12941210 -0.04575409       0.005
  -0.05603708  0.09705908 -0.06863113       0.005
   0.00000000  0.12941210 -0.11438522       0.005
   0.05603708  0.09705908 -0.13726226       0.005
   0.11207417  0.06470605 -0.16013931       0.005
   0.16811125  0.03235303 -0.18301635       0.005
  -0.11207417  0.19411816 -0.06863113       0.005
  -0.05603708  0.16176513 -0.09150818       0.005
   0.00000000  0.19411816 -0.13726226       0.005
   0.05603708  0.16176513 -0.16013931       0.005
   0.11207417  0.12941210 -0.18301635       0.005
   0.16811125  0.09705908 -0.20589340       0.005
  -0.11207417  0.25882421 -0.09150818       0.005
  -0.05603708  0.22647118 -0.11438522       0.005
   0.00000000 -0.12941210 -0.02287704       0.005
   0.05603708 -0.16176513 -0.04575409       0.005
   0.11207417 -0.19411816 -0.06863113       0.005
   0.16811125 -0.22647118 -0.09150818       0.005
  -0.11207417 -0.06470605  0.02287704       0.005
  -0.05603708 -0.09705908 -0.00000000       0.005
   0.00000000 -0.06470605 -0.04575409       0.005
   0.05603708 -0.09705908 -0.06863113       0.005
   0.11207417 -0.12941210 -0.09150818       0.005
   0.16811125 -0.16176513 -0.11438522       0.005
  -0.11207417 -0.00000000  0.00000000       0.005
  -0.05603708 -0.03235303 -0.02287704       0.005
 
 k-points in reciprocal lattice and weights: k-points                                
   0.00000000  0.00000000  0.00000000       0.005
   0.16666667  0.00000000  0.00000000       0.005
   0.33333333 -0.00000000  0.00000000       0.005
   0.50000000  0.00000000 -0.00000000       0.005
  -0.33333333  0.00000000  0.00000000       0.005
  -0.16666667  0.00000000 -0.00000000       0.005
   0.00000000  0.16666667  0.00000000       0.005
   0.16666667  0.16666667  0.00000000       0.005
   0.33333333  0.16666667  0.00000000       0.005
   0.50000000  0.16666667  0.00000000       0.005
  -0.33333333  0.16666667 -0.00000000       0.005
  -0.16666667  0.16666667 -0.00000000       0.005
   0.00000000  0.33333333  0.00000000       0.005
   0.16666667  0.33333333  0.00000000       0.005
   0.33333333  0.33333333  0.00000000       0.005
   0.50000000  0.33333333  0.00000000       0.005
  -0.33333333  0.33333333 -0.00000000       0.005
  -0.16666667  0.33333333  0.00000000       0.005
   0.00000000  0.50000000  0.00000000       0.005
   0.16666667  0.50000000  0.00000000       0.005
   0.33333333  0.50000000  0.00000000       0.005
   0.50000000  0.50000000  0.00000000       0.005
  -0.33333333  0.50000000  0.00000000       0.005
  -0.16666667  0.50000000  0.00000000       0.005
   0.00000000 -0.33333333 -0.00000000       0.005
   0.16666667 -0.33333333 -0.00000000       0.005
   0.33333333 -0.33333333  0.00000000       0.005
   0.50000000 -0.33333333  0.00000000       0.005
  -0.33333333 -0.33333333 -0.00000000       0.005
  -0.16666667 -0.33333333 -0.00000000       0.005
   0.00000000 -0.16666667 -0.00000000       0.005
   0.16666667 -0.16666667  0.00000000       0.005
   0.33333333 -0.16666667  0.00000000       0.005
   0.50000000 -0.16666667  0.00000000       0.005
  -0.33333333 -0.16666667 -0.00000000       0.005
  -0.16666667 -0.16666667 -0.00000000       0.005
   0.00000000  0.00000000  0.16666667       0.005
   0.16666667  0.00000000  0.16666667       0.005
   0.33333333 -0.00000000  0.16666667       0.005
   0.50000000  0.00000000  0.16666667       0.005
  -0.33333333  0.00000000  0.16666667       0.005
  -0.16666667  0.00000000  0.16666667       0.005
   0.00000000  0.16666667  0.16666667       0.005
   0.16666667  0.16666667  0.16666667       0.005
   0.33333333  0.16666667  0.16666667       0.005
   0.50000000  0.16666667  0.16666667       0.005
  -0.33333333  0.16666667  0.16666667       0.005
  -0.16666667  0.16666667  0.16666667       0.005
   0.00000000  0.33333333  0.16666667       0.005
   0.16666667  0.33333333  0.16666667       0.005
   0.33333333  0.33333333  0.16666667       0.005
   0.50000000  0.33333333  0.16666667       0.005
  -0.33333333  0.33333333  0.16666667       0.005
  -0.16666667  0.33333333  0.16666667       0.005
   0.00000000  0.50000000  0.16666667       0.005
   0.16666667  0.50000000  0.16666667       0.005
   0.33333333  0.50000000  0.16666667       0.005
   0.50000000  0.50000000  0.16666667       0.005
  -0.33333333  0.50000000  0.16666667       0.005
  -0.16666667  0.50000000  0.16666667       0.005
   0.00000000 -0.33333333  0.16666667       0.005
   0.16666667 -0.33333333  0.16666667       0.005
   0.33333333 -0.33333333  0.16666667       0.005
   0.50000000 -0.33333333  0.16666667       0.005
  -0.33333333 -0.33333333  0.16666667       0.005
  -0.16666667 -0.33333333  0.16666667       0.005
   0.00000000 -0.16666667  0.16666667       0.005
   0.16666667 -0.16666667  0.16666667       0.005
   0.33333333 -0.16666667  0.16666667       0.005
   0.50000000 -0.16666667  0.16666667       0.005
  -0.33333333 -0.16666667  0.16666667       0.005
  -0.16666667 -0.16666667  0.16666667       0.005
   0.00000000  0.00000000  0.33333333       0.005
   0.16666667  0.00000000  0.33333333       0.005
   0.33333333 -0.00000000  0.33333333       0.005
   0.50000000  0.00000000  0.33333333       0.005
  -0.33333333  0.00000000  0.33333333       0.005
  -0.16666667  0.00000000  0.33333333       0.005
   0.00000000  0.16666667  0.33333333       0.005
   0.16666667  0.16666667  0.33333333       0.005
   0.33333333  0.16666667  0.33333333       0.005
   0.50000000  0.16666667  0.33333333       0.005
  -0.33333333  0.16666667  0.33333333       0.005
  -0.16666667  0.16666667  0.33333333       0.005
   0.00000000  0.33333333  0.33333333       0.005
   0.16666667  0.33333333  0.33333333       0.005
   0.33333333  0.33333333  0.33333333       0.005
   0.50000000  0.33333333  0.33333333       0.005
  -0.33333333  0.33333333  0.33333333       0.005
  -0.16666667  0.33333333  0.33333333       0.005
   0.00000000  0.50000000  0.33333333       0.005
   0.16666667  0.50000000  0.33333333       0.005
   0.33333333  0.50000000  0.33333333       0.005
   0.50000000  0.50000000  0.33333333       0.005
  -0.33333333  0.50000000  0.33333333       0.005
  -0.16666667  0.50000000  0.33333333       0.005
   0.00000000 -0.33333333  0.33333333       0.005
   0.16666667 -0.33333333  0.33333333       0.005
   0.33333333 -0.33333333  0.33333333       0.005
   0.50000000 -0.33333333  0.33333333       0.005
  -0.33333333 -0.33333333  0.33333333       0.005
  -0.16666667 -0.33333333  0.33333333       0.005
   0.00000000 -0.16666667  0.33333333       0.005
   0.16666667 -0.16666667  0.33333333       0.005
   0.33333333 -0.16666667  0.33333333       0.005
   0.50000000 -0.16666667  0.33333333       0.005
  -0.33333333 -0.16666667  0.33333333       0.005
  -0.16666667 -0.16666667  0.33333333       0.005
   0.00000000  0.00000000  0.50000000       0.005
   0.16666667  0.00000000  0.50000000       0.005
   0.33333333 -0.00000000  0.50000000       0.005
   0.50000000  0.00000000  0.50000000       0.005
  -0.33333333  0.00000000  0.50000000       0.005
  -0.16666667  0.00000000  0.50000000       0.005
   0.00000000  0.16666667  0.50000000       0.005
   0.16666667  0.16666667  0.50000000       0.005
   0.33333333  0.16666667  0.50000000       0.005
   0.50000000  0.16666667  0.50000000       0.005
  -0.33333333  0.16666667  0.50000000       0.005
  -0.16666667  0.16666667  0.50000000       0.005
   0.00000000  0.33333333  0.50000000       0.005
   0.16666667  0.33333333  0.50000000       0.005
   0.33333333  0.33333333  0.50000000       0.005
   0.50000000  0.33333333  0.50000000       0.005
  -0.33333333  0.33333333  0.50000000       0.005
  -0.16666667  0.33333333  0.50000000       0.005
   0.00000000  0.50000000  0.50000000       0.005
   0.16666667  0.50000000  0.50000000       0.005
   0.33333333  0.50000000  0.50000000       0.005
   0.50000000  0.50000000  0.50000000       0.005
  -0.33333333  0.50000000  0.50000000       0.005
  -0.16666667  0.50000000  0.50000000       0.005
   0.00000000 -0.33333333  0.50000000       0.005
   0.16666667 -0.33333333  0.50000000       0.005
   0.33333333 -0.33333333  0.50000000       0.005
   0.50000000 -0.33333333  0.50000000       0.005
  -0.33333333 -0.33333333  0.50000000       0.005
  -0.16666667 -0.33333333  0.50000000       0.005
   0.00000000 -0.16666667  0.50000000       0.005
   0.16666667 -0.16666667  0.50000000       0.005
   0.33333333 -0.16666667  0.50000000       0.005
   0.50000000 -0.16666667  0.50000000       0.005
  -0.33333333 -0.16666667  0.50000000       0.005
  -0.16666667 -0.16666667  0.50000000       0.005
   0.00000000  0.00000000 -0.33333333       0.005
   0.16666667  0.00000000 -0.33333333       0.005
   0.33333333 -0.00000000 -0.33333333       0.005
   0.50000000  0.00000000 -0.33333333       0.005
  -0.33333333  0.00000000 -0.33333333       0.005
  -0.16666667  0.00000000 -0.33333333       0.005
   0.00000000  0.16666667 -0.33333333       0.005
   0.16666667  0.16666667 -0.33333333       0.005
   0.33333333  0.16666667 -0.33333333       0.005
   0.50000000  0.16666667 -0.33333333       0.005
  -0.33333333  0.16666667 -0.33333333       0.005
  -0.16666667  0.16666667 -0.33333333       0.005
   0.00000000  0.33333333 -0.33333333       0.005
   0.16666667  0.33333333 -0.33333333       0.005
   0.33333333  0.33333333 -0.33333333       0.005
   0.50000000  0.33333333 -0.33333333       0.005
  -0.33333333  0.33333333 -0.33333333       0.005
  -0.16666667  0.33333333 -0.33333333       0.005
   0.00000000  0.50000000 -0.33333333       0.005
   0.16666667  0.50000000 -0.33333333       0.005
   0.33333333  0.50000000 -0.33333333       0.005
   0.50000000  0.50000000 -0.33333333       0.005
  -0.33333333  0.50000000 -0.33333333       0.005
  -0.16666667  0.50000000 -0.33333333       0.005
   0.00000000 -0.33333333 -0.33333333       0.005
   0.16666667 -0.33333333 -0.33333333       0.005
   0.33333333 -0.33333333 -0.33333333       0.005
   0.50000000 -0.33333333 -0.33333333       0.005
  -0.33333333 -0.33333333 -0.33333333       0.005
  -0.16666667 -0.33333333 -0.33333333       0.005
   0.00000000 -0.16666667 -0.33333333       0.005
   0.16666667 -0.16666667 -0.33333333       0.005
   0.33333333 -0.16666667 -0.33333333       0.005
   0.50000000 -0.16666667 -0.33333333       0.005
  -0.33333333 -0.16666667 -0.33333333       0.005
  -0.16666667 -0.16666667 -0.33333333       0.005
   0.00000000  0.00000000 -0.16666667       0.005
   0.16666667  0.00000000 -0.16666667       0.005
   0.33333333 -0.00000000 -0.16666667       0.005
   0.50000000  0.00000000 -0.16666667       0.005
  -0.33333333  0.00000000 -0.16666667       0.005
  -0.16666667  0.00000000 -0.16666667       0.005
   0.00000000  0.16666667 -0.16666667       0.005
   0.16666667  0.16666667 -0.16666667       0.005
   0.33333333  0.16666667 -0.16666667       0.005
   0.50000000  0.16666667 -0.16666667       0.005
  -0.33333333  0.16666667 -0.16666667       0.005
  -0.16666667  0.16666667 -0.16666667       0.005
   0.00000000  0.33333333 -0.16666667       0.005
   0.16666667  0.33333333 -0.16666667       0.005
   0.33333333  0.33333333 -0.16666667       0.005
   0.50000000  0.33333333 -0.16666667       0.005
  -0.33333333  0.33333333 -0.16666667       0.005
  -0.16666667  0.33333333 -0.16666667       0.005
   0.00000000  0.50000000 -0.16666667       0.005
   0.16666667  0.50000000 -0.16666667       0.005
   0.33333333  0.50000000 -0.16666667       0.005
   0.50000000  0.50000000 -0.16666667       0.005
  -0.33333333  0.50000000 -0.16666667       0.005
  -0.16666667  0.50000000 -0.16666667       0.005
   0.00000000 -0.33333333 -0.16666667       0.005
   0.16666667 -0.33333333 -0.16666667       0.005
   0.33333333 -0.33333333 -0.16666667       0.005
   0.50000000 -0.33333333 -0.16666667       0.005
  -0.33333333 -0.33333333 -0.16666667       0.005
  -0.16666667 -0.33333333 -0.16666667       0.005
   0.00000000 -0.16666667 -0.16666667       0.005
   0.16666667 -0.16666667 -0.16666667       0.005
   0.33333333 -0.16666667 -0.16666667       0.005
   0.50000000 -0.16666667 -0.16666667       0.005
  -0.33333333 -0.16666667 -0.16666667       0.005
  -0.16666667 -0.16666667 -0.16666667       0.005
 
 position of ions in fractional coordinates (direct lattice) 
   0.00000000  0.00000000  0.00000000
 
 position of ions in cartesian coordinates  (Angst):
   0.00000000  0.00000000  0.00000000
 
 Euler angles ALPHA=     0.0000000  BETA=     0.0000000

 transformation matrix from SAXIS to cartesian coordinates
 ---------------------------------------------------------
     1.0000000 m_x     0.0000000 m_y     0.0000000 m_z
     0.0000000 m_x     1.0000000 m_y     0.0000000 m_z
     0.0000000 m_x     0.0000000 m_y     1.0000000 m_z

 transformation matrix from cartesian coordinates to SAXIS
 ---------------------------------------------------------
     1.0000000 m_x     0.0000000 m_y     0.0000000 m_z
     0.0000000 m_x     1.0000000 m_y     0.0000000 m_z
     0.0000000 m_x     0.0000000 m_y     1.0000000 m_z




--------------------------------------------------------------------------------------------------------


 k-point  1 :   0.0000 0.0000 0.0000  plane waves:     458
 k-point  2 :   0.1667 0.0000 0.0000  plane waves:     428
 k-point  3 :   0.3333-0.0000 0.0000  plane waves:     446
 k-point  4 :   0.5000 0.0000-0.0000  plane waves:     456
 k-point  5 :  -0.3333 0.0000 0.0000  plane waves:     446
 k-point  6 :  -0.1667 0.0000-0.0000  plane waves:     428
 k-point  7 :   0.0000 0.1667 0.0000  plane waves:     428
 k-point  8 :   0.1667 0.1667 0.0000  plane waves:     436
 k-point  9 :   0.3333 0.1667 0.0000  plane waves:     442
 k-point 10 :   0.5000 0.1667 0.0000  plane waves:     434
 k-point 11 :  -0.3333 0.1667-0.0000  plane waves:     442
 k-point 12 :  -0.1667 0.1667-0.0000  plane waves:     436
 k-point 13 :   0.0000 0.3333 0.0000  plane waves:     446
 k-point 14 :   0.1667 0.3333 0.0000  plane waves:     442
 k-point 15 :   0.3333 0.3333 0.0000  plane waves:     436
 k-point 16 :   0.5000 0.3333 0.0000  plane waves:     436
 k-point 17 :  -0.3333 0.3333-0.0000  plane waves:     440
 k-point 18 :  -0.1667 0.3333 0.0000  plane waves:     442
 k-point 19 :   0.0000 0.5000 0.0000  plane waves:     456
 k-point 20 :   0.1667 0.5000 0.0000  plane waves:     434
 k-point 21 :   0.3333 0.5000 0.0000  plane waves:     436
 k-point 22 :   0.5000 0.5000 0.0000  plane waves:     444
 k-point 23 :  -0.3333 0.5000 0.0000  plane waves:     436
 k-point 24 :  -0.1667 0.5000 0.0000  plane waves:     434
 k-point 25 :   0.0000-0.3333-0.0000  plane waves:     446
 k-point 26 :   0.1667-0.3333-0.0000  plane waves:     442
 k-point 27 :   0.3333-0.3333 0.0000  plane waves:     440
 k-point 28 :   0.5000-0.3333 0.0000  plane waves:     436
 k-point 29 :  -0.3333-0.3333-0.0000  plane waves:     436
 k-point 30 :  -0.1667-0.3333-0.0000  plane waves:     442
 k-point 31 :   0.0000-0.1667-0.0000  plane waves:     428
 k-point 32 :   0.1667-0.1667 0.0000  plane waves:     436
 k-point 33 :   0.3333-0.1667 0.0000  plane waves:     442
 k-point 34 :   0.5000-0.1667 0.0000  plane waves:     434
 k-point 35 :  -0.3333-0.1667-0.0000  plane waves:     442
 k-point 36 :  -0.1667-0.1667-0.0000  plane waves:     436
 k-point 37 :   0.0000 0.0000 0.1667  plane waves:     428
 k-point 38 :   0.1667 0.0000 0.1667  plane waves:     436
 k-point 39 :   0.3333-0.0000 0.1667  plane waves:     442
 k-point 40 :   0.5000 0.0000 0.1667  plane waves:     434
 k-point 41 :  -0.3333 0.0000 0.1667  plane waves:     442
 k-point 42 :  -0.1667 0.0000 0.1667  plane waves:     436
 k-point 43 :   0.0000 0.1667 0.1667  plane waves:     436
 k-point 44 :   0.1667 0.1667 0.1667  plane waves:     428
 k-point 45 :   0.3333 0.1667 0.1667  plane waves:     436
 k-point 46 :   0.5000 0.1667 0.1667  plane waves:     442
 k-point 47 :  -0.3333 0.1667 0.1667  plane waves:     434
 k-point 48 :  -0.1667 0.1667 0.1667  plane waves:     442
 k-point 49 :   0.0000 0.3333 0.1667  plane waves:     442
 k-point 50 :   0.1667 0.3333 0.1667  plane waves:     436
 k-point 51 :   0.3333 0.3333 0.1667  plane waves:     442
 k-point 52 :   0.5000 0.3333 0.1667  plane waves:     446
 k-point 53 :  -0.3333 0.3333 0.1667  plane waves:     440
 k-point 54 :  -0.1667 0.3333 0.1667  plane waves:     446
 k-point 55 :   0.0000 0.5000 0.1667  plane waves:     434
 k-point 56 :   0.1667 0.5000 0.1667  plane waves:     442
 k-point 57 :   0.3333 0.5000 0.1667  plane waves:     446
 k-point 58 :   0.5000 0.5000 0.1667  plane waves:     436
 k-point 59 :  -0.3333 0.5000 0.1667  plane waves:     432
 k-point 60 :  -0.1667 0.5000 0.1667  plane waves:     440
 k-point 61 :   0.0000-0.3333 0.1667  plane waves:     442
 k-point 62 :   0.1667-0.3333 0.1667  plane waves:     434
 k-point 63 :   0.3333-0.3333 0.1667  plane waves:     440
 k-point 64 :   0.5000-0.3333 0.1667  plane waves:     432
 k-point 65 :  -0.3333-0.3333 0.1667  plane waves:     436
 k-point 66 :  -0.1667-0.3333 0.1667  plane waves:     446
 k-point 67 :   0.0000-0.1667 0.1667  plane waves:     436
 k-point 68 :   0.1667-0.1667 0.1667  plane waves:     442
 k-point 69 :   0.3333-0.1667 0.1667  plane waves:     446
 k-point 70 :   0.5000-0.1667 0.1667  plane waves:     440
 k-point 71 :  -0.3333-0.1667 0.1667  plane waves:     446
 k-point 72 :  -0.1667-0.1667 0.1667  plane waves:     442
 k-point 73 :   0.0000 0.0000 0.3333  plane waves:     446
 k-point 74 :   0.1667 0.0000 0.3333  plane waves:     442
 k-point 75 :   0.3333-0.0000 0.3333  plane waves:     436
 k-point 76 :   0.5000 0.0000 0.3333  plane waves:     436
 k-point 77 :  -0.3333 0.0000 0.3333  plane waves:     440
 k-point 78 :  -0.1667 0.0000 0.3333  plane waves:     442
 k-point 79 :   0.0000 0.1667 0.3333  plane waves:     442
 k-point 80 :   0.1667 0.1667 0.3333  plane waves:     436
 k-point 81 :   0.3333 0.1667 0.3333  plane waves:     442
 k-point 82 :   0.5000 0.1667 0.3333  plane waves:     446
 k-point 83 :  -0.3333 0.1667 0.3333  plane waves:     440
 k-point 84 :  -0.1667 0.1667 0.3333  plane waves:     446
 k-point 85 :   0.0000 0.3333 0.3333  plane waves:     436
 k-point 86 :   0.1667 0.3333 0.3333  plane waves:     442
 k-point 87 :   0.3333 0.3333 0.3333  plane waves:     446
 k-point 88 :   0.5000 0.3333 0.3333  plane waves:     442
 k-point 89 :  -0.3333 0.3333 0.3333  plane waves:     440
 k-point 90 :  -0.1667 0.3333 0.3333  plane waves:     436
 k-point 91 :   0.0000 0.5000 0.3333  plane waves:     436
 k-point 92 :   0.1667 0.5000 0.3333  plane waves:     446
 k-point 93 :   0.3333 0.5000 0.3333  plane waves:     442
 k-point 94 :   0.5000 0.5000 0.3333  plane waves:     434
 k-point 95 :  -0.3333 0.5000 0.3333  plane waves:     440
 k-point 96 :  -0.1667 0.5000 0.3333  plane waves:     432
 k-point 97 :   0.0000-0.3333 0.3333  plane waves:     440
 k-point 98 :   0.1667-0.3333 0.3333  plane waves:     440
 k-point 99 :   0.3333-0.3333 0.3333  plane waves:     440
 k-point ** :   0.5000-0.3333 0.3333  plane waves:     440
 k-point ** :  -0.3333-0.3333 0.3333  plane waves:     440
 k-point ** :  -0.1667-0.3333 0.3333  plane waves:     440
 k-point ** :   0.0000-0.1667 0.3333  plane waves:     442
 k-point ** :   0.1667-0.1667 0.3333  plane waves:     446
 k-point ** :   0.3333-0.1667 0.3333  plane waves:     436
 k-point ** :   0.5000-0.1667 0.3333  plane waves:     432
 k-point ** :  -0.3333-0.1667 0.3333  plane waves:     440
 k-point ** :  -0.1667-0.1667 0.3333  plane waves:     434
 k-point ** :   0.0000 0.0000 0.5000  plane waves:     456
 k-point ** :   0.1667 0.0000 0.5000  plane waves:     434
 k-point ** :   0.3333-0.0000 0.5000  plane waves:     436
 k-point ** :   0.5000 0.0000 0.5000  plane waves:     444
 k-point ** :  -0.3333 0.0000 0.5000  plane waves:     436
 k-point ** :  -0.1667 0.0000 0.5000  plane waves:     434
 k-point ** :   0.0000 0.1667 0.5000  plane waves:     434
 k-point ** :   0.1667 0.1667 0.5000  plane waves:     442
 k-point ** :   0.3333 0.1667 0.5000  plane waves:     446
 k-point ** :   0.5000 0.1667 0.5000  plane waves:     436
 k-point ** :  -0.3333 0.1667 0.5000  plane waves:     432
 k-point ** :  -0.1667 0.1667 0.5000  plane waves:     440
 k-point ** :   0.0000 0.3333 0.5000  plane waves:     436
 k-point ** :   0.1667 0.3333 0.5000  plane waves:     446
 k-point ** :   0.3333 0.3333 0.5000  plane waves:     442
 k-point ** :   0.5000 0.3333 0.5000  plane waves:     434
 k-point ** :  -0.3333 0.3333 0.5000  plane waves:     440
 k-point ** :  -0.1667 0.3333 0.5000  plane waves:     432
 k-point ** :   0.0000 0.5000 0.5000  plane waves:     444
 k-point ** :   0.1667 0.5000 0.5000  plane waves:     436
 k-point ** :   0.3333 0.5000 0.5000  plane waves:     434
 k-point ** :   0.5000 0.5000 0.5000  plane waves:     456
 k-point ** :  -0.3333 0.5000 0.5000  plane waves:     434
 k-point ** :  -0.1667 0.5000 0.5000  plane waves:     436
 k-point ** :   0.0000-0.3333 0.5000  plane waves:     436
 k-point ** :   0.1667-0.3333 0.5000  plane waves:     432
 k-point ** :   0.3333-0.3333 0.5000  plane waves:     440
 k-point ** :   0.5000-0.3333 0.5000  plane waves:     434
 k-point ** :  -0.3333-0.3333 0.5000  plane waves:     442
 k-point ** :  -0.1667-0.3333 0.5000  plane waves:     446
 k-point ** :   0.0000-0.1667 0.5000  plane waves:     434
 k-point ** :   0.1667-0.1667 0.5000  plane waves:     440
 k-point ** :   0.3333-0.1667 0.5000  plane waves:     432
 k-point ** :   0.5000-0.1667 0.5000  plane waves:     436
 k-point ** :  -0.3333-0.1667 0.5000  plane waves:     446
 k-point ** :  -0.1667-0.1667 0.5000  plane waves:     442
 k-point ** :   0.0000 0.0000-0.3333  plane waves:     446
 k-point ** :   0.1667 0.0000-0.3333  plane waves:     442
 k-point ** :   0.3333-0.0000-0.3333  plane waves:     440
 k-point ** :   0.5000 0.0000-0.3333  plane waves:     436
 k-point ** :  -0.3333 0.0000-0.3333  plane waves:     436
 k-point ** :  -0.1667 0.0000-0.3333  plane waves:     442
 k-point ** :   0.0000 0.1667-0.3333  plane waves:     442
 k-point ** :   0.1667 0.1667-0.3333  plane waves:     434
 k-point ** :   0.3333 0.1667-0.3333  plane waves:     440
 k-point ** :   0.5000 0.1667-0.3333  plane waves:     432
 k-point ** :  -0.3333 0.1667-0.3333  plane waves:     436
 k-point ** :  -0.1667 0.1667-0.3333  plane waves:     446
 k-point ** :   0.0000 0.3333-0.3333  plane waves:     440
 k-point ** :   0.1667 0.3333-0.3333  plane waves:     440
 k-point ** :   0.3333 0.3333-0.3333  plane waves:     440
 k-point ** :   0.5000 0.3333-0.3333  plane waves:     440
 k-point ** :  -0.3333 0.3333-0.3333  plane waves:     440
 k-point ** :  -0.1667 0.3333-0.3333  plane waves:     440
 k-point ** :   0.0000 0.5000-0.3333  plane waves:     436
 k-point ** :   0.1667 0.5000-0.3333  plane waves:     432
 k-point ** :   0.3333 0.5000-0.3333  plane waves:     440
 k-point ** :   0.5000 0.5000-0.3333  plane waves:     434
 k-point ** :  -0.3333 0.5000-0.3333  plane waves:     442
 k-point ** :  -0.1667 0.5000-0.3333  plane waves:     446
 k-point ** :   0.0000-0.3333-0.3333  plane waves:     436
 k-point ** :   0.1667-0.3333-0.3333  plane waves:     436
 k-point ** :   0.3333-0.3333-0.3333  plane waves:     440
 k-point ** :   0.5000-0.3333-0.3333  plane waves:     442
 k-point ** :  -0.3333-0.3333-0.3333  plane waves:     446
 k-point ** :  -0.1667-0.3333-0.3333  plane waves:     442
 k-point ** :   0.0000-0.1667-0.3333  plane waves:     442
 k-point ** :   0.1667-0.1667-0.3333  plane waves:     446
 k-point ** :   0.3333-0.1667-0.3333  plane waves:     440
 k-point ** :   0.5000-0.1667-0.3333  plane waves:     446
 k-point ** :  -0.3333-0.1667-0.3333  plane waves:     442
 k-point ** :  -0.1667-0.1667-0.3333  plane waves:     436
 k-point ** :   0.0000 0.0000-0.1667  plane waves:     428
 k-point ** :   0.1667 0.0000-0.1667  plane waves:     436
 k-point ** :   0.3333-0.0000-0.1667  plane waves:     442
 k-point ** :   0.5000 0.0000-0.1667  plane waves:     434
 k-point ** :  -0.3333 0.0000-0.1667  plane waves:     442
 k-point ** :  -0.1667 0.0000-0.1667  plane waves:     436
 k-point ** :   0.0000 0.1667-0.1667  plane waves:     436
 k-point ** :   0.1667 0.1667-0.1667  plane waves:     442
 k-point ** :   0.3333 0.1667-0.1667  plane waves:     446
 k-point ** :   0.5000 0.1667-0.1667  plane waves:     440
 k-point ** :  -0.3333 0.1667-0.1667  plane waves:     446
 k-point ** :  -0.1667 0.1667-0.1667  plane waves:     442
 k-point ** :   0.0000 0.3333-0.1667  plane waves:     442
 k-point ** :   0.1667 0.3333-0.1667  plane waves:     446
 k-point ** :   0.3333 0.3333-0.1667  plane waves:     436
 k-point ** :   0.5000 0.3333-0.1667  plane waves:     432
 k-point ** :  -0.3333 0.3333-0.1667  plane waves:     440
 k-point ** :  -0.1667 0.3333-0.1667  plane waves:     434
 k-point ** :   0.0000 0.5000-0.1667  plane waves:     434
 k-point ** :   0.1667 0.5000-0.1667  plane waves:     440
 k-point ** :   0.3333 0.5000-0.1667  plane waves:     432
 k-point ** :   0.5000 0.5000-0.1667  plane waves:     436
 k-point ** :  -0.3333 0.5000-0.1667  plane waves:     446
 k-point ** :  -0.1667 0.5000-0.1667  plane waves:     442
 k-point ** :   0.0000-0.3333-0.1667  plane waves:     442
 k-point ** :   0.1667-0.3333-0.1667  plane waves:     446
 k-point ** :   0.3333-0.3333-0.1667  plane waves:     440
 k-point ** :   0.5000-0.3333-0.1667  plane waves:     446
 k-point ** :  -0.3333-0.3333-0.1667  plane waves:     442
 k-point ** :  -0.1667-0.3333-0.1667  plane waves:     436
 k-point ** :   0.0000-0.1667-0.1667  plane waves:     436
 k-point ** :   0.1667-0.1667-0.1667  plane waves:     442
 k-point ** :   0.3333-0.1667-0.1667  plane waves:     434
 k-point ** :   0.5000-0.1667-0.1667  plane waves:     442
 k-point ** :  -0.3333-0.1667-0.1667  plane waves:     436
 k-point ** :  -0.1667-0.1667-0.1667  plane waves:     428

 maximum and minimum number of plane-waves per node :       140       80

 maximum number of plane-waves:       458
 maximum index in each direction: 
   IXMAX=    4   IYMAX=    4   IZMAX=    4
   IXMIN=   -4   IYMIN=   -4   IZMIN=   -4


 parallel 3D FFT for wavefunctions:
    minimum data exchange during FFTs selected (reduces bandwidth)
 parallel 3D FFT for charge:
    minimum data exchange during FFTs selected (reduces bandwidth)


 total amount of memory used by VASP MPI-rank0    38572. kBytes
=======================================================================

   base      :      30000. kBytes
   nonl-proj :       2738. kBytes
   fftplans  :        995. kBytes
   grid      :       1430. kBytes
   one-center:         92. kBytes
   wavefun   :       3317. kBytes
 
     INWAV:  cpu time    0.6228: real time    0.6231
 Broyden mixing: mesh for mixing (old mesh)
   NGX =  9   NGY =  9   NGZ =  9
  (NGX  = 36   NGY  = 36   NGZ  = 36)
  gives a total of    729 points

 charge density for first step will be calculated from the start-wavefunctions


--------------------------------------------------------------------------------------------------------


 Maximum index for augmentation-charges         3716 (set IRDMAX)


--------------------------------------------------------------------------------------------------------


 initial charge from wavefunction
 First call to EWALD:  gamma=   0.669
 Maximum number of real-space cells 3x 3x 3
 Maximum number of reciprocal cells 3x 3x 3

    FEWALD:  cpu time    0.0029: real time    0.0029


--------------------------------------- Iteration      1(   1)  ---------------------------------------


    POTLOK:  cpu time    0.0208: real time    0.0218
    SETDIJ:  cpu time    0.0455: real time    0.0456
     EDDAV:  cpu time    1.2314: real time    1.2332
       DOS:  cpu time    0.0007: real time    0.0007
    --------------------------------------------
      LOOP:  cpu time    1.2985: real time    1.3014

 eigenvalue-minimisations  :  9056
 total energy-change (2. order) : 0.6884013E+00  (-0.5276665E-02)
 number of electron       8.0000000 magnetization      -0.0000000      0.0000000      0.0000000
 augmentation part        2.1002893 magnetization      -0.0000000     -0.0000000     -0.0000000

 Free energy of the ion-electron system (eV)
  ---------------------------------------------------
  alpha Z        PSCENC =        16.68370675
  Ewald energy   TEWEN  =      -502.27794943
  -Hartree energ DENC   =      -331.90264988
  -exchange      EXHF   =         0.00000000
  -V(xc)+E(xc)   XCENC  =        54.40864968
  PAW double counting   =       728.85839396     -769.94471511
  entropy T*S    EENTRO =        -0.00000000
  eigenvalues    EBANDS =      -147.81509585
  atomic energy  EATOM  =       952.67806118
  Solvation  Ediel_sol  =         0.00000000
  ---------------------------------------------------
  free energy    TOTEN  =         0.68840130 eV

  energy without entropy =        0.68840130  energy(sigma->0) =        0.68840130


--------------------------------------------------------------------------------------------------------




--------------------------------------- Iteration      1(   2)  ---------------------------------------


     EDDAV:  cpu time    1.2577: real time    1.2578
       DOS:  cpu time    0.0007: real time    0.0007
    --------------------------------------------
      LOOP:  cpu time    1.2584: real time    1.2585

 eigenvalue-minimisations  :  9656
 total energy-change (2. order) :-0.1039166E-03  (-0.1039165E-03)
 number of electron       8.0000000 magnetization      -0.0000000      0.0000000      0.0000000
 augmentation part        2.1002893 magnetization      -0.0000000     -0.0000000     -0.0000000

 Free energy of the ion-electron system (eV)
  ---------------------------------------------------
  alpha Z        PSCENC =        16.68370675
  Ewald energy   TEWEN  =      -502.27794943
  -Hartree energ DENC   =      -331.90264988
  -exchange      EXHF   =         0.00000000
  -V(xc)+E(xc)   XCENC  =        54.40864968
  PAW double counting   =       728.85839396     -769.94471511
  entropy T*S    EENTRO =        -0.00000000
  eigenvalues    EBANDS =      -147.81519977
  atomic energy  EATOM  =       952.67806118
  Solvation  Ediel_sol  =         0.00000000
  ---------------------------------------------------
  free energy    TOTEN  =         0.68829738 eV

  energy without entropy =        0.68829738  energy(sigma->0) =        0.68829738


--------------------------------------------------------------------------------------------------------




--------------------------------------- Iteration      1(   3)  ---------------------------------------


     EDDAV:  cpu time    1.2635: real time    1.2636
       DOS:  cpu time    0.0007: real time    0.0007
    --------------------------------------------
      LOOP:  cpu time    1.2642: real time    1.2643

 eigenvalue-minimisations  :  9596
 total energy-change (2. order) :-0.4508684E-07  (-0.4508631E-07)
 number of electron       8.0000000 magnetization      -0.0000000      0.0000000      0.0000000
 augmentation part        2.1002893 magnetization      -0.0000000     -0.0000000     -0.0000000

 Free energy of the ion-electron system (eV)
  ---------------------------------------------------
  alpha Z        PSCENC =        16.68370675
  Ewald energy   TEWEN  =      -502.27794943
  -Hartree energ DENC   =      -331.90264988
  -exchange      EXHF   =         0.00000000
  -V(xc)+E(xc)   XCENC  =        54.40864968
  PAW double counting   =       728.85839396     -769.94471511
  entropy T*S    EENTRO =        -0.00000000
  eigenvalues    EBANDS =      -147.81519981
  atomic energy  EATOM  =       952.67806118
  Solvation  Ediel_sol  =         0.00000000
  ---------------------------------------------------
  free energy    TOTEN  =         0.68829733 eV

  energy without entropy =        0.68829733  energy(sigma->0) =        0.68829733


--------------------------------------------------------------------------------------------------------




--------------------------------------- Iteration      1(   4)  ---------------------------------------


     EDDAV:  cpu time    1.1297: real time    1.1299
       DOS:  cpu time    0.0011: real time    0.0011
    --------------------------------------------
      LOOP:  cpu time    1.1308: real time    1.1310

 eigenvalue-minimisations  :  7924
 total energy-change (2. order) :-0.8935785E-10  (-0.7343315E-10)
 number of electron       8.0000000 magnetization      -0.0000000      0.0000000      0.0000000
 augmentation part        2.1002893 magnetization      -0.0000000     -0.0000000     -0.0000000

 Free energy of the ion-electron system (eV)
  ---------------------------------------------------
  alpha Z        PSCENC =        16.68370675
  Ewald energy   TEWEN  =      -502.27794943
  -Hartree energ DENC   =      -331.90264988
  -exchange      EXHF   =         0.00000000
  -V(xc)+E(xc)   XCENC  =        54.40864968
  PAW double counting   =       728.85839396     -769.94471511
  entropy T*S    EENTRO =        -0.00000000
  eigenvalues    EBANDS =      -147.81519981
  atomic energy  EATOM  =       952.67806118
  Solvation  Ediel_sol  =         0.00000000
  ---------------------------------------------------
  free energy    TOTEN  =         0.68829733 eV

  energy without entropy =        0.68829733  energy(sigma->0) =        0.68829733


--------------------------------------------------------------------------------------------------------




--------------------------------------- Iteration      1(   5)  ---------------------------------------


     EDDAV:  cpu time    1.0589: real time    1.0589
       DOS:  cpu time    0.0007: real time    0.0007
    CHARGE:  cpu time    0.2092: real time    0.2094
    MIXING:  cpu time    0.0015: real time    0.0015
    --------------------------------------------
      LOOP:  cpu time    1.2703: real time    1.2706

 eigenvalue-minimisations  :  7012
 total energy-change (2. order) : 0.6821210E-11  (-0.3224318E-11)
 number of electron       8.0000000 magnetization       0.0000000     -0.0000000     -0.0000000
 augmentation part        2.1143109 magnetization      -0.0000000     -0.0000000     -0.0000000

 Broyden mixing:
  rms(total) = 0.45513E-01    rms(broyden)= 0.45432E-01
  rms(prec ) = 0.14818E+00
  weight for this iteration     100.00

 Free energy of the ion-electron system (eV)
  ---------------------------------------------------
  alpha Z        PSCENC =        16.68370675
  Ewald energy   TEWEN  =      -502.27794943
  -Hartree energ DENC   =      -331.90264988
  -exchange      EXHF   =         0.00000000
  -V(xc)+E(xc)   XCENC  =        54.40864968
[...]
    0.000000    0.509004    0.508881    0.509046   -0.003579   -0.010729    0.006301
    0.800149    0.051042    0.051030    0.051046   -0.000358   -0.001073    0.000630
    1.600299    0.025738    0.025732    0.025740   -0.000179   -0.000537    0.000316
    2.400448    0.017406    0.017402    0.017407   -0.000120   -0.000359    0.000211
    3.200598    0.013323    0.013320    0.013324   -0.000090   -0.000270    0.000159
    4.000747    0.010948    0.010946    0.010949   -0.000072   -0.000217    0.000127
    4.800896    0.009438    0.009436    0.009439   -0.000061   -0.000182    0.000107
    5.601046    0.008434    0.008432    0.008435   -0.000052   -0.000157    0.000092
    6.401195    0.007763    0.007761    0.007763   -0.000046   -0.000138    0.000081
    7.201344    0.007335    0.007334    0.007336   -0.000041   -0.000124    0.000073
    8.001494    0.007108    0.007107    0.007108   -0.000038   -0.000112    0.000066
    8.801643    0.007072    0.007071    0.007073   -0.000035   -0.000103    0.000061
    9.601793    0.007255    0.007254    0.007255   -0.000032   -0.000095    0.000056
   10.401942    0.007744    0.007743    0.007745   -0.000030   -0.000089    0.000052
   11.202091    0.008787    0.008786    0.008788   -0.000028   -0.000084    0.000049
   12.002241    0.011253    0.011253    0.011254   -0.000027   -0.000079    0.000047
   12.802390    0.022409    0.022409    0.022411   -0.000026   -0.000076    0.000044
   13.602540    0.135474    0.135502    0.135515   -0.000050   -0.000082    0.000025
   14.402689    0.334832    0.334842    0.334847   -0.000033   -0.000073    0.000034
   15.202838    0.130509    0.130520    0.130526   -0.000033   -0.000071    0.000032
   16.002988    0.167615    0.167614    0.167614   -0.000022   -0.000065    0.000039
   16.803137    0.182794    0.182773    0.182766   -0.000003   -0.000056    0.000050
   17.603287    0.142151    0.142138    0.142134   -0.000010   -0.000057    0.000044
   18.403436    0.644219    0.644272    0.644292   -0.000067   -0.000080    0.000003
   19.203585    0.266417    0.266381    0.266367    0.000010   -0.000047    0.000057
   20.003735    0.274006    0.274010    0.274014   -0.000025   -0.000061    0.000032
   20.803884    0.183712    0.183711    0.183711   -0.000019   -0.000058    0.000035
   21.604033    0.701880    0.701939    0.701963   -0.000072   -0.000079   -0.000002
   22.404183    0.209916    0.209915    0.209916   -0.000020   -0.000058    0.000035
   23.204332    0.274889    0.274879    0.274878   -0.000013   -0.000055    0.000040
   24.004482    0.332756    0.332696    0.332679    0.000029   -0.000038    0.000072
   24.804631    0.397694    0.397719    0.397731   -0.000044   -0.000069    0.000020
   25.604780    0.648719    0.648649    0.648628    0.000039   -0.000036    0.000079
   26.404930    0.275004    0.275007    0.275011   -0.000026   -0.000064    0.000035
   27.205079    0.232294    0.233371    0.233697   -0.000957   -0.000444   -0.000621
   28.005229    0.127013    0.126959    0.126946    0.000022   -0.000047    0.000072
   28.805378    0.263425    0.263424    0.263428   -0.000026   -0.000069    0.000041
   29.605527    0.184058    0.184059    0.184063   -0.000028   -0.000073    0.000044
   30.405677    0.129958    0.129947    0.129948   -0.000020   -0.000074    0.000054
   31.205826    0.511963    0.511957    0.511960   -0.000027   -0.000082    0.000055
   32.005975    0.665633    0.665677    0.665697   -0.000075   -0.000108    0.000029
   32.806125    0.454024    0.454011    0.454016   -0.000030   -0.000098    0.000071
   33.606274    0.218321    0.218307    0.218315   -0.000037   -0.000114    0.000082
   34.406424    0.239236    0.239206    0.239216   -0.000034   -0.000131    0.000109
   35.206573    0.323780    0.323736    0.323758   -0.000042   -0.000166    0.000147
   36.006722    0.037812    0.037748    0.037825   -0.000072   -0.000245    0.000224
   36.806872    0.141931    0.140665    0.142446    0.000066   -0.000457    0.000918
   37.607021    0.225415    0.222671    0.225302    0.002885    0.000254    0.001315
   38.407171    0.059439    0.059411    0.059418    0.000120    0.000919   -0.000380
   39.207320    0.202828    0.202758    0.202782    0.000124    0.000337   -0.000094
   40.007469    0.120011    0.119997    0.120011    0.000060    0.000184   -0.000078
   40.807619    0.043112    0.043106    0.043116    0.000042    0.000126   -0.000059
   41.607768    0.015377    0.015372    0.015377    0.000035    0.000095   -0.000045
   42.407918    0.003786    0.003783    0.003787    0.000027    0.000075   -0.000037
   43.208067    0.002641    0.002639    0.002642    0.000023    0.000061   -0.000031
   44.008216    0.007608    0.007606    0.007608    0.000019    0.000051   -0.000026
   44.808366    0.011319    0.011318    0.011320    0.000017    0.000044   -0.000023
   45.608515    0.002317    0.002317    0.002318    0.000015    0.000038   -0.000020
   46.408664    0.009279    0.009278    0.009279    0.000013    0.000033   -0.000017
   47.208814    0.005698    0.005687    0.005685    0.000021    0.000033   -0.000009
   48.008963    0.004609    0.004609    0.004609    0.000011    0.000026   -0.000014
   48.809113    0.008702    0.008701    0.008702    0.000010    0.000023   -0.000012
   49.609262    0.007358    0.007357    0.007357    0.000010    0.000021   -0.000011
   50.409411    0.015614    0.015615    0.015615    0.000008    0.000018   -0.000010
   51.209561    0.003180    0.003179    0.003180    0.000008    0.000017   -0.000009
   52.009710    0.000942    0.000942    0.000942    0.000007    0.000015   -0.000008
   52.809860    0.001380    0.001380    0.001380    0.000007    0.000013   -0.000007
   53.610009    0.001915    0.001915    0.001915    0.000007    0.000012   -0.000006
   54.410158    0.004122    0.004122    0.004122    0.000006    0.000011   -0.000006
   55.210308    0.001333    0.001333    0.001333    0.000006    0.000009   -0.000005
   56.010457    0.004905    0.004905    0.004905    0.000006    0.000008   -0.000004
   56.810607    0.014166    0.014167    0.014167    0.000005    0.000007   -0.000004
   57.610756    0.004498    0.004498    0.004498    0.000006    0.000006   -0.000003
   58.410905    0.001228    0.001228    0.001228    0.000006    0.000004   -0.000002
   59.211055    0.003239    0.003238    0.003238    0.000006    0.000003   -0.000001
   60.011204    0.006160    0.006160    0.006158    0.000006    0.000001    0.000001
   60.811353    0.001101    0.001102    0.001103    0.000006   -0.000003    0.000001
   61.611503    0.002071    0.002065    0.002063    0.000014   -0.000007    0.000008
   62.411652    0.002116    0.002115    0.002115    0.000015   -0.000027    0.000012
   63.211802    0.008167    0.008171    0.008127    0.000024   -0.000209   -0.000069
   64.011951    0.001551    0.001524    0.001531    0.000016    0.000051    0.000002
   64.812100    0.003674    0.003660    0.003664    0.000011    0.000019   -0.000005
   65.612250    0.002181    0.002179    0.002180    0.000001    0.000014   -0.000008
   66.412399    0.000490    0.000489    0.000489    0.000001    0.000012   -0.000007
   67.212549    0.000132    0.000132    0.000132    0.000001    0.000011   -0.000006
   68.012698    0.000082    0.000082    0.000082    0.000001    0.000010   -0.000006
   68.812847    0.000061    0.000061    0.000061    0.000001    0.000009   -0.000005
   69.612997    0.000049    0.000049    0.000049    0.000001    0.000008   -0.000005
   70.413146    0.000041    0.000041    0.000041    0.000001    0.000007   -0.000004
   71.213295    0.000035    0.000035    0.000035    0.000001    0.000007   -0.000004
   72.013445    0.000031    0.000031    0.000031    0.000001    0.000006   -0.000004
   72.813594    0.000028    0.000028    0.000028    0.000001    0.000006   -0.000003
   73.613744    0.000025    0.000025    0.000025    0.000001    0.000006   -0.000003
   74.413893    0.000022    0.000022    0.000022    0.000001    0.000005   -0.000003
   75.214042    0.000020    0.000020    0.000020    0.000001    0.000005   -0.000003
   76.014192    0.000019    0.000019    0.000019    0.000001    0.000005   -0.000003
   76.814341    0.000017    0.000017    0.000017    0.000001    0.000005   -0.000003
   77.614491    0.000016    0.000016    0.000016    0.000001    0.000004   -0.000003
   78.414640    0.000015    0.000015    0.000015    0.000001    0.000004   -0.000002
   79.214789    0.000014    0.000014    0.000014    0.000001    0.000004   -0.000002

  frequency dependent      REAL DIELECTRIC FUNCTION (independent particle, no local field effects) current-current (2nd set in vasprun.xml)
     E(ev)        X           Y           Z          XY          YZ          ZX
  --------------------------------------------------------------------------------------------------------------
    0.000000    1.203619    1.203570    1.203636    0.000005   -0.000022    0.000017
    0.800149    1.203902    1.203853    1.203919    0.000005   -0.000022    0.000017
    1.600299    1.204767    1.204717    1.204783    0.000005   -0.000022    0.000017
    2.400448    1.206230    1.206180    1.206247    0.000005   -0.000022    0.000017
    3.200598    1.208327    1.208277    1.208344    0.000005   -0.000022    0.000017
    4.000747    1.211110    1.211060    1.211127    0.000005   -0.000022    0.000017
    4.800896    1.214654    1.214604    1.214671    0.000005   -0.000022    0.000017
    5.601046    1.219063    1.219013    1.219081    0.000004   -0.000023    0.000017
    6.401195    1.224482    1.224432    1.224500    0.000004   -0.000023    0.000017
    7.201344    1.231112    1.231061    1.231130    0.000004   -0.000023    0.000017
    8.001494    1.239244    1.239193    1.239263    0.000004   -0.000023    0.000017
    8.801643    1.249316    1.249265    1.249335    0.000004   -0.000024    0.000017
    9.601793    1.262021    1.261969    1.262040    0.000004   -0.000024    0.000017
   10.401942    1.278554    1.278503    1.278575    0.000003   -0.000024    0.000017
   11.202091    1.301271    1.301219    1.301292    0.000003   -0.000025    0.000017
   12.002241    1.335974    1.335922    1.335997    0.000002   -0.000026    0.000016
   12.802390    1.407115    1.407067    1.407144   -0.000001   -0.000027    0.000014
   13.602540    1.576087    1.576060    1.576148   -0.000021   -0.000036    0.000000
   14.402689    1.117725    1.117645    1.117713    0.000025   -0.000018    0.000034
   15.202838    1.507229    1.507189    1.507275   -0.000011   -0.000033    0.000008
   16.002988    1.471539    1.471496    1.471583   -0.000009   -0.000033    0.000010
   16.803137    1.021933    1.021876    1.021960    0.000002   -0.000029    0.000018
   17.603287    1.257378    1.257324    1.257412   -0.000002   -0.000031    0.000015
   18.403436    1.217298    1.217190    1.217261    0.000044   -0.000013    0.000049
   19.203585    0.997386    0.997316    0.997406    0.000008   -0.000029    0.000024
   20.003735    1.101444    1.101393    1.101494   -0.000010   -0.000037    0.000012
   20.803884    1.417947    1.417870    1.417964    0.000011   -0.000030    0.000027
   21.604033    1.192316    1.192160    1.192228    0.000078   -0.000003    0.000075
   22.404183    1.189118    1.189032    1.189131    0.000015   -0.000030    0.000032
   23.204332    1.090201    1.090113    1.090218    0.000014   -0.000032    0.000032
   24.004482    1.062686    1.062495    1.062574    0.000101    0.000001    0.000093
   24.804631    1.544552    1.544486    1.544612   -0.000012   -0.000046    0.000016
   25.604780    0.842986    0.842790    0.842881    0.000097   -0.000004    0.000095
   26.404930    0.798100    0.798065    0.798217   -0.000047   -0.000065   -0.000006
   27.205079    1.156057    1.156704    1.157070   -0.000644   -0.000311   -0.000425
   28.005229    0.820133    0.820172    0.820368   -0.000122   -0.000102   -0.000055
   28.805378    1.046890    1.046789    1.046956   -0.000007   -0.000059    0.000028
   29.605527    0.784412    0.784282    0.784459    0.000009   -0.000057    0.000043
   30.405677    0.892563    0.892417    0.892611    0.000012   -0.000062    0.000049
   31.205826    1.299044    1.298915    1.299144   -0.000016   -0.000080    0.000034
   32.005975    0.917845    0.917685    0.917938   -0.000007   -0.000086    0.000046
   32.806125    0.718429    0.718196    0.718475    0.000032   -0.000083    0.000082
   33.606274    0.653130    0.652878    0.653223    0.000013   -0.000108    0.000082
   34.406424    0.723852    0.723501    0.723923    0.000043   -0.000122    0.000122
   35.206573    0.659844    0.659379    0.659955    0.000042   -0.000167    0.000156
   36.006722    0.826306    0.825558    0.826476    0.000047   -0.000255    0.000237
   36.806872    0.961163    0.958939    0.961657   -0.000325   -0.000541    0.000256
   37.607021    0.903019    0.907296    0.899666    0.000550    0.000200   -0.002226
   38.407171    0.806752    0.807623    0.806560   -0.000344    0.001696   -0.000350
   39.207320    0.753926    0.754440    0.753798   -0.000093    0.000301   -0.000186
   40.007469    0.758049    0.758404    0.757959   -0.000057    0.000174   -0.000128
   40.807619    0.811245    0.811510    0.811172   -0.000038    0.000124   -0.000095
   41.607768    0.776532    0.776748    0.776477   -0.000031    0.000095   -0.000077
   42.407918    0.827508    0.827686    0.827460   -0.000024    0.000078   -0.000064
   43.208067    0.853437    0.853588    0.853395   -0.000020    0.000065   -0.000054
   44.008216    0.862410    0.862541    0.862373   -0.000017    0.000056   -0.000047
   44.808366    0.881001    0.881117    0.880969   -0.000014    0.000049   -0.000041
   45.608515    0.887787    0.887890    0.887758   -0.000012    0.000043   -0.000037
   46.408664    0.890047    0.890140    0.890020   -0.000010    0.000039   -0.000033
   47.208814    0.908329    0.908412    0.908303   -0.000008    0.000036   -0.000029
   48.008963    0.912080    0.912157    0.912057   -0.000008    0.000032   -0.000027
   48.809113    0.908186    0.908257    0.908165   -0.000007    0.000029   -0.000025
   49.609262    0.919095    0.919160    0.919074   -0.000006    0.000027   -0.000023
   50.409411    0.927424    0.927484    0.927405   -0.000006    0.000025   -0.000021
   51.209561    0.923208    0.923264    0.923190   -0.000005    0.000023   -0.000020
   52.009710    0.927951    0.928003    0.927934   -0.000004    0.000021   -0.000019
   52.809860    0.933543    0.933592    0.933527   -0.000004    0.000020   -0.000017
   53.610009    0.935577    0.935623    0.935562   -0.000003    0.000018   -0.000016
   54.410158    0.942629    0.942673    0.942615   -0.000003    0.000017   -0.000015
   55.210308    0.944267    0.944307    0.944252   -0.000002    0.000016   -0.000014
   56.010457    0.950692    0.950730    0.950678   -0.000001    0.000015   -0.000013
   56.810607    0.946687    0.946723    0.946674   -0.000001    0.000013   -0.000013
   57.610756    0.944141    0.944174    0.944127   -0.000000    0.000012   -0.000012
   58.410905    0.947058    0.947090    0.947045    0.000001    0.000011   -0.000011
   59.211055    0.947306    0.947336    0.947293    0.000002    0.000009   -0.000011
   60.011204    0.948605    0.948632    0.948588    0.000003    0.000008   -0.000009
   60.811353    0.952794    0.952821    0.952783    0.000002    0.000004   -0.000011
   61.611503    0.951315    0.951344    0.951308    0.000001   -0.000001   -0.000014
   62.411652    0.959808    0.959827    0.959788    0.000011   -0.000010   -0.000014
   63.211802    0.957472    0.957494    0.957459   -0.000083    0.000276   -0.000135
   64.011951    0.957408    0.957298    0.957316    0.000088    0.000078    0.000081
   64.812100    0.954180    0.954272    0.954222   -0.000063    0.000007   -0.000048
   65.612250    0.954983    0.955031    0.954994   -0.000026    0.000014   -0.000021
   66.412399    0.958245    0.958283    0.958250   -0.000017    0.000013   -0.000015
   67.212549    0.960987    0.961020    0.960989   -0.000013    0.000013   -0.000013
   68.012698    0.962710    0.962740    0.962710   -0.000011    0.000012   -0.000011
   68.812847    0.964130    0.964157    0.964129   -0.000009    0.000011   -0.000010
   69.612997    0.965381    0.965407    0.965380   -0.000008    0.000011   -0.000010
   70.413146    0.966518    0.966542    0.966516   -0.000007    0.000010   -0.000009
   71.213295    0.967567    0.967590    0.967565   -0.000007    0.000010   -0.000009
   72.013445    0.968546    0.968568    0.968543   -0.000006    0.000009   -0.000008
   72.813594    0.969464    0.969486    0.969462   -0.000006    0.000009   -0.000008
   73.613744    0.970331    0.970351    0.970328   -0.000005    0.000009   -0.000007
   74.413893    0.971152    0.971171    0.971149   -0.000005    0.000008   -0.000007
   75.214042    0.971931    0.971950    0.971929   -0.000005    0.000008   -0.000007
   76.014192    0.972673    0.972692    0.972671   -0.000004    0.000008   -0.000007
   76.814341    0.973381    0.973399    0.973379   -0.000004    0.000008   -0.000006
   77.614491    0.974058    0.974075    0.974055   -0.000004    0.000007   -0.000006
   78.414640    0.974705    0.974722    0.974703   -0.000004    0.000007   -0.000006
   79.214789    0.975325    0.975342    0.975323   -0.000004    0.000007   -0.000006
 
 The outermost node in the dielectric function lies at epsilon=  -1.0


--------------------------------------------------------------------------------------------------------


    OPTICS:  cpu time    0.1635: real time    0.1687
    4ORBIT:  cpu time    0.0000: real time    0.0000

 Spin-Orbit-Coupling matrix elements

 Ion:    1  E_soc:     -0.0005498
 l=   1
     0.0000000    -0.0000916    -0.0000916
    -0.0000916     0.0000000    -0.0000916
    -0.0000916    -0.0000916     0.0000000
 l=   2
     0.0000000    -0.0000000     0.0000000    -0.0000000    -0.0000000
    -0.0000000     0.0000000    -0.0000000    -0.0000000    -0.0000000
     0.0000000    -0.0000000     0.0000000    -0.0000000     0.0000000
    -0.0000000    -0.0000000    -0.0000000     0.0000000    -0.0000000
    -0.0000000    -0.0000000     0.0000000    -0.0000000     0.0000000
 l=   3
     0.0000000     0.0000000     0.0000000     0.0000000     0.0000000     0.0000000     0.0000000
     0.0000000     0.0000000     0.0000000     0.0000000     0.0000000     0.0000000     0.0000000
     0.0000000     0.0000000     0.0000000     0.0000000     0.0000000     0.0000000     0.0000000
     0.0000000     0.0000000     0.0000000     0.0000000     0.0000000     0.0000000     0.0000000
     0.0000000     0.0000000     0.0000000     0.0000000     0.0000000     0.0000000     0.0000000
     0.0000000     0.0000000     0.0000000     0.0000000     0.0000000     0.0000000     0.0000000
     0.0000000     0.0000000     0.0000000     0.0000000     0.0000000     0.0000000     0.0000000

 total amount of memory used by VASP MPI-rank0    38572. kBytes
=======================================================================

   base      :      30000. kBytes
   nonl-proj :       2738. kBytes
   fftplans  :        995. kBytes
   grid      :       1430. kBytes
   one-center:         92. kBytes
   wavefun   :       3317. kBytes
 
  
  
 General timing and accounting informations for this job:
 ========================================================
  
                  Total CPU time used (sec):       25.443
                            User time (sec):       25.024
                          System time (sec):        0.419
                         Elapsed time (sec):       26.569
  
                   Maximum memory used (kb):       77424.
                   Average memory used (kb):           0.
  
                          Minor page faults:        38771
                          Major page faults:            0
                 Voluntary context switches:         2190
