<?xml version="1.0" encoding="ISO-8859-1"?>
<modeling>
 <generator>
  <i name="program" type="string">vasp </i>
  <i name="version" type="string">5.4.4.18Apr17-6-g9f103f2a35  </i>
  <i name="subversion" type="string">(build Nov 03 2018 10:20:46) complex            parallel </i>
  <i name="platform" type="string">LinuxIFC </i>
  <i name="date" type="string">2018 12 20 </i>
  <i name="time" type="string">14:47:18 </i>
 </generator>
 <incar>
  <i type="string" name="SYSTEM">   Og_FCC</i>
  <i type="string" name="PREC">accurate</i>
  <i type="string" name="ALGO">   Normal</i>
  <i type="logical" name="ADDGRID"> T  </i>
  <i type="logical" name="LSORBIT"> T  </i>
  <i type="int" name="ISPIN">     1</i>
  <i type="int" name="MAXMIX">    50</i>
  <i type="int" name="NELM">    50</i>
  <i type="int" name="NELMDL">    -5</i>
  <i type="int" name="NELMIN">     2</i>
  <i type="int" name="IBRION">    -1</i>
  <i type="int" name="NFREE">     5</i>
  <i name="EDIFF">      0.00000001</i>
  <i name="EDIFFG">      0.00001000</i>
  <i type="int" name="NSW">     1</i>
  <i type="int" name="ISIF">     3</i>
  <i type="int" name="ISYM">     0</i>
  <i name="SYMPREC">      0.00000010</i>
  <i name="ENCUT">    300.00000000</i>
  <i name="POTIM">      0.10000000</i>
  <i type="logical" name="LREAL"> F  </i>
  <i type="int" name="ISMEAR">     0</i>
  <i name="SIGMA">      0.00100000</i>
  <i type="int" name="NWRITE">     2</i>
  <i type="logical" name="LWAVE"> T  </i>
  <i type="logical" name="LCHARG"> F  </i>
  <i type="logical" name="LVTOT"> F  </i>
  <i type="logical" name="LOPTICS"> T  </i>
  <i type="logical" name="GGA_COMPAT"> F  </i>
  <v type="int" name="KPOINT_BSE">    -1     0     0     0</v>
  <i type="int" name="NELM">    50</i>
  <i type="string" name="METAGGA"> SCAN</i>
 </incar>
 <structure name="primitive_cell" >
  <crystal>
   <varray name="basis" >
    <v>       3.15663441       0.00000000       0.00000000 </v>
    <v>       1.57831721       2.73372559       0.00000000 </v>
    <v>       1.57831721       0.91124186       2.57738121 </v>
   </varray>
   <i name="volume">     22.24118194 </i>
   <varray name="rec_basis" >
    <v>       0.31679310      -0.18290058      -0.12933024 </v>
    <v>       0.00000000       0.36580116      -0.12933024 </v>
    <v>       0.00000000       0.00000000       0.38799072 </v>
   </varray>
  </crystal>
  <varray name="positions" >
   <v>       0.00000000       0.00000000       0.00000000 </v>
  </varray>
 </structure>
 <varray name="primitive_index" >
  <v type="int" >        1 </v>
 </varray>
 <kpoints>
  <generation param="Gamma">
   <v type="int" name="divisions">       6        6        6 </v>
   <v name="usershift">      0.00000000       0.00000000       0.00000000 </v>
   <v name="genvec1">      0.16666667       0.00000000       0.00000000 </v>
   <v name="genvec2">      0.00000000       0.16666667      -0.00000000 </v>
   <v name="genvec3">      0.00000000       0.00000000       0.16666667 </v>
   <v name="shift">      0.00000000       0.00000000       0.00000000 </v>
  </generation>
  <varray name="kpointlist" >
   <v>       0.00000000       0.00000000       0.00000000 </v>
   <v>       0.16666667      -0.00000000      -0.00000000 </v>
   <v>       0.33333333       0.00000000      -0.00000000 </v>
   <v>       0.50000000       0.00000000      -0.00000000 </v>
   <v>      -0.33333333       0.00000000       0.00000000 </v>
   <v>      -0.16666667       0.00000000       0.00000000 </v>
   <v>       0.00000000       0.16666667       0.00000000 </v>
   <v>       0.16666667       0.16666667      -0.00000000 </v>
   <v>       0.33333333       0.16666667      -0.00000000 </v>
   <v>       0.50000000       0.16666667       0.00000000 </v>
   <v>      -0.33333333       0.16666667       0.00000000 </v>
   <v>      -0.16666667       0.16666667       0.00000000 </v>
   <v>       0.00000000       0.33333333      -0.00000000 </v>
   <v>       0.16666667       0.33333333       0.00000000 </v>
   <v>       0.33333333       0.33333333       0.00000000 </v>
   <v>       0.50000000       0.33333333       0.00000000 </v>
   <v>      -0.33333333       0.33333333       0.00000000 </v>
   <v>      -0.16666667       0.33333333      -0.00000000 </v>
   <v>       0.00000000       0.50000000      -0.00000000 </v>
   <v>       0.16666667       0.50000000      -0.00000000 </v>
   <v>       0.33333333       0.50000000      -0.00000000 </v>
   <v>       0.50000000       0.50000000      -0.00000000 </v>
   <v>      -0.33333333       0.50000000      -0.00000000 </v>
   <v>      -0.16666667       0.50000000       0.00000000 </v>
   <v>       0.00000000      -0.33333333       0.00000000 </v>
   <v>       0.16666667      -0.33333333       0.00000000 </v>
   <v>       0.33333333      -0.33333333      -0.00000000 </v>
   <v>       0.50000000      -0.33333333      -0.00000000 </v>
   <v>      -0.33333333      -0.33333333       0.00000000 </v>
   <v>      -0.16666667      -0.33333333      -0.00000000 </v>
   <v>       0.00000000      -0.16666667      -0.00000000 </v>
   <v>       0.16666667      -0.16666667      -0.00000000 </v>
   <v>       0.33333333      -0.16666667      -0.00000000 </v>
   <v>       0.50000000      -0.16666667       0.00000000 </v>
   <v>      -0.33333333      -0.16666667       0.00000000 </v>
   <v>      -0.16666667      -0.16666667       0.00000000 </v>
   <v>       0.00000000       0.00000000       0.16666667 </v>
   <v>       0.16666667      -0.00000000       0.16666667 </v>
   <v>       0.33333333       0.00000000       0.16666667 </v>
   <v>       0.50000000       0.00000000       0.16666667 </v>
   <v>      -0.33333333       0.00000000       0.16666667 </v>
   <v>      -0.16666667       0.00000000       0.16666667 </v>
   <v>       0.00000000       0.16666667       0.16666667 </v>
   <v>       0.16666667       0.16666667       0.16666667 </v>
   <v>       0.33333333       0.16666667       0.16666667 </v>
   <v>       0.50000000       0.16666667       0.16666667 </v>
   <v>      -0.33333333       0.16666667       0.16666667 </v>
   <v>      -0.16666667       0.16666667       0.16666667 </v>
   <v>       0.00000000       0.33333333       0.16666667 </v>
   <v>       0.16666667       0.33333333       0.16666667 </v>
   <v>       0.33333333       0.33333333       0.16666667 </v>
   <v>       0.50000000       0.33333333       0.16666667 </v>
   <v>      -0.33333333       0.33333333       0.16666667 </v>
   <v>      -0.16666667       0.33333333       0.16666667 </v>
   <v>       0.00000000       0.50000000       0.16666667 </v>
   <v>       0.16666667       0.50000000       0.16666667 </v>
   <v>       0.33333333       0.50000000       0.16666667 </v>
   <v>       0.50000000       0.50000000       0.16666667 </v>
   <v>      -0.33333333       0.50000000       0.16666667 </v>
   <v>      -0.16666667       0.50000000       0.16666667 </v>
   <v>       0.00000000      -0.33333333       0.16666667 </v>
   <v>       0.16666667      -0.33333333       0.16666667 </v>
   <v>       0.33333333      -0.33333333       0.16666667 </v>
   <v>       0.50000000      -0.33333333       0.16666667 </v>
   <v>      -0.33333333      -0.33333333       0.16666667 </v>
   <v>      -0.16666667      -0.33333333       0.16666667 </v>
   <v>       0.00000000      -0.16666667       0.16666667 </v>
   <v>       0.16666667      -0.16666667       0.16666667 </v>
   <v>       0.33333333      -0.16666667       0.16666667 </v>
   <v>       0.50000000      -0.16666667       0.16666667 </v>
   <v>      -0.33333333      -0.16666667       0.16666667 </v>
   <v>      -0.16666667      -0.16666667       0.16666667 </v>
   <v>       0.00000000       0.00000000       0.33333333 </v>
   <v>       0.16666667      -0.00000000       0.33333333 </v>
   <v>       0.33333333       0.00000000       0.33333333 </v>
   <v>       0.50000000       0.00000000       0.33333333 </v>
   <v>      -0.33333333       0.00000000       0.33333333 </v>
   <v>      -0.16666667       0.00000000       0.33333333 </v>
   <v>       0.00000000       0.16666667       0.33333333 </v>
   <v>       0.16666667       0.16666667       0.33333333 </v>
   <v>       0.33333333       0.16666667       0.33333333 </v>
   <v>       0.50000000       0.16666667       0.33333333 </v>
   <v>      -0.33333333       0.16666667       0.33333333 </v>
   <v>      -0.16666667       0.16666667       0.33333333 </v>
   <v>       0.00000000       0.33333333       0.33333333 </v>
   <v>       0.16666667       0.33333333       0.33333333 </v>
   <v>       0.33333333       0.33333333       0.33333333 </v>
   <v>       0.50000000       0.33333333       0.33333333 </v>
   <v>      -0.33333333       0.33333333       0.33333333 </v>
   <v>      -0.16666667       0.33333333       0.33333333 </v>
   <v>       0.00000000       0.50000000       0.33333333 </v>
   <v>       0.16666667       0.50000000       0.33333333 </v>
   <v>       0.33333333       0.50000000       0.33333333 </v>
   <v>       0.50000000       0.50000000       0.33333333 </v>
   <v>      -0.33333333       0.50000000       0.33333333 </v>
   <v>      -0.16666667       0.50000000       0.33333333 </v>
   <v>       0.00000000      -0.33333333       0.33333333 </v>
   <v>       0.16666667      -0.33333333       0.33333333 </v>
   <v>       0.33333333      -0.33333333       0.33333333 </v>
   <v>       0.50000000      -0.33333333       0.33333333 </v>
   <v>      -0.33333333      -0.33333333       0.33333333 </v>
   <v>      -0.16666667      -0.33333333       0.33333333 </v>
   <v>       0.00000000      -0.16666667       0.33333333 </v>
   <v>       0.16666667      -0.16666667       0.33333333 </v>
   <v>       0.33333333      -0.16666667       0.33333333 </v>
   <v>       0.50000000      -0.16666667       0.33333333 </v>
   <v>      -0.33333333      -0.16666667       0.33333333 </v>
   <v>      -0.16666667      -0.16666667       0.33333333 </v>
   <v>       0.00000000       0.00000000       0.50000000 </v>
   <v>       0.16666667      -0.00000000       0.50000000 </v>
   <v>       0.33333333       0.00000000       0.50000000 </v>
   <v>       0.50000000       0.00000000       0.50000000 </v>
   <v>      -0.33333333       0.00000000       0.50000000 </v>
   <v>      -0.16666667       0.00000000       0.50000000 </v>
   <v>       0.00000000       0.16666667       0.50000000 </v>
   <v>       0.16666667       0.16666667       0.50000000 </v>
   <v>       0.33333333       0.16666667       0.50000000 </v>
   <v>       0.50000000       0.16666667       0.50000000 </v>
   <v>      -0.33333333       0.16666667       0.50000000 </v>
   <v>      -0.16666667       0.16666667       0.50000000 </v>
   <v>       0.00000000       0.33333333       0.50000000 </v>
   <v>       0.16666667       0.33333333       0.50000000 </v>
   <v>       0.33333333       0.33333333       0.50000000 </v>
   <v>       0.50000000       0.33333333       0.50000000 </v>
   <v>      -0.33333333       0.33333333       0.50000000 </v>
   <v>      -0.16666667       0.33333333       0.50000000 </v>
   <v>       0.00000000       0.50000000       0.50000000 </v>
   <v>       0.16666667       0.50000000       0.50000000 </v>
   <v>       0.33333333       0.50000000       0.50000000 </v>
   <v>       0.50000000       0.50000000       0.50000000 </v>
   <v>      -0.33333333       0.50000000       0.50000000 </v>
   <v>      -0.16666667       0.50000000       0.50000000 </v>
   <v>       0.00000000      -0.33333333       0.50000000 </v>
   <v>       0.16666667      -0.33333333       0.50000000 </v>
   <v>       0.33333333      -0.33333333       0.50000000 </v>
   <v>       0.50000000      -0.33333333       0.50000000 </v>
   <v>      -0.33333333      -0.33333333       0.50000000 </v>
   <v>      -0.16666667      -0.33333333       0.50000000 </v>
   <v>       0.00000000      -0.16666667       0.50000000 </v>
   <v>       0.16666667      -0.16666667       0.50000000 </v>
   <v>       0.33333333      -0.16666667       0.50000000 </v>
   <v>       0.50000000      -0.16666667       0.50000000 </v>
   <v>      -0.33333333      -0.16666667       0.50000000 </v>
   <v>      -0.16666667      -0.16666667       0.50000000 </v>
   <v>       0.00000000       0.00000000      -0.33333333 </v>
   <v>       0.16666667      -0.00000000      -0.33333333 </v>
   <v>       0.33333333       0.00000000      -0.33333333 </v>
   <v>       0.50000000       0.00000000      -0.33333333 </v>
   <v>      -0.33333333       0.00000000      -0.33333333 </v>
   <v>      -0.16666667       0.00000000      -0.33333333 </v>
   <v>       0.00000000       0.16666667      -0.33333333 </v>
   <v>       0.16666667       0.16666667      -0.33333333 </v>
   <v>       0.33333333       0.16666667      -0.33333333 </v>
   <v>       0.50000000       0.16666667      -0.33333333 </v>
   <v>      -0.33333333       0.16666667      -0.33333333 </v>
   <v>      -0.16666667       0.16666667      -0.33333333 </v>
   <v>       0.00000000       0.33333333      -0.33333333 </v>
   <v>       0.16666667       0.33333333      -0.33333333 </v>
   <v>       0.33333333       0.33333333      -0.33333333 </v>
   <v>       0.50000000       0.33333333      -0.33333333 </v>
   <v>      -0.33333333       0.33333333      -0.33333333 </v>
   <v>      -0.16666667       0.33333333      -0.33333333 </v>
   <v>       0.00000000       0.50000000      -0.33333333 </v>
   <v>       0.16666667       0.50000000      -0.33333333 </v>
   <v>       0.33333333       0.50000000      -0.33333333 </v>
   <v>       0.50000000       0.50000000      -0.33333333 </v>
   <v>      -0.33333333       0.50000000      -0.33333333 </v>
   <v>      -0.16666667       0.50000000      -0.33333333 </v>
   <v>       0.00000000      -0.33333333      -0.33333333 </v>
   <v>       0.16666667      -0.33333333      -0.33333333 </v>
   <v>       0.33333333      -0.33333333      -0.33333333 </v>
   <v>       0.50000000      -0.33333333      -0.33333333 </v>
   <v>      -0.33333333      -0.33333333      -0.33333333 </v>
   <v>      -0.16666667      -0.33333333      -0.33333333 </v>
   <v>       0.00000000      -0.16666667      -0.33333333 </v>
   <v>       0.16666667      -0.16666667      -0.33333333 </v>
   <v>       0.33333333      -0.16666667      -0.33333333 </v>
   <v>       0.50000000      -0.16666667      -0.33333333 </v>
   <v>      -0.33333333      -0.16666667      -0.33333333 </v>
   <v>      -0.16666667      -0.16666667      -0.33333333 </v>
   <v>       0.00000000       0.00000000      -0.16666667 </v>
   <v>       0.16666667      -0.00000000      -0.16666667 </v>
   <v>       0.33333333       0.00000000      -0.16666667 </v>
   <v>       0.50000000       0.00000000      -0.16666667 </v>
   <v>      -0.33333333       0.00000000      -0.16666667 </v>
   <v>      -0.16666667       0.00000000      -0.16666667 </v>
   <v>       0.00000000       0.16666667      -0.16666667 </v>
   <v>       0.16666667       0.16666667      -0.16666667 </v>
   <v>       0.33333333       0.16666667      -0.16666667 </v>
   <v>       0.50000000       0.16666667      -0.16666667 </v>
   <v>      -0.33333333       0.16666667      -0.16666667 </v>
   <v>      -0.16666667       0.16666667      -0.16666667 </v>
   <v>       0.00000000       0.33333333      -0.16666667 </v>
   <v>       0.16666667       0.33333333      -0.16666667 </v>
   <v>       0.33333333       0.33333333      -0.16666667 </v>
   <v>       0.50000000       0.33333333      -0.16666667 </v>
   <v>      -0.33333333       0.33333333      -0.16666667 </v>
   <v>      -0.16666667       0.33333333      -0.16666667 </v>
   <v>       0.00000000       0.50000000      -0.16666667 </v>
   <v>       0.16666667       0.50000000      -0.16666667 </v>
   <v>       0.33333333       0.50000000      -0.16666667 </v>
   <v>       0.50000000       0.50000000      -0.16666667 </v>
   <v>      -0.33333333       0.50000000      -0.16666667 </v>
   <v>      -0.16666667       0.50000000      -0.16666667 </v>
   <v>       0.00000000      -0.33333333      -0.16666667 </v>
   <v>       0.16666667      -0.33333333      -0.16666667 </v>
   <v>       0.33333333      -0.33333333      -0.16666667 </v>
   <v>       0.50000000      -0.33333333      -0.16666667 </v>
   <v>      -0.33333333      -0.33333333      -0.16666667 </v>
   <v>      -0.16666667      -0.33333333      -0.16666667 </v>
   <v>       0.00000000      -0.16666667      -0.16666667 </v>
   <v>       0.16666667      -0.16666667      -0.16666667 </v>
   <v>       0.33333333      -0.16666667      -0.16666667 </v>
   <v>       0.50000000      -0.16666667      -0.16666667 </v>
   <v>      -0.33333333      -0.16666667      -0.16666667 </v>
   <v>      -0.16666667      -0.16666667      -0.16666667 </v>
  </varray>
  <varray name="weights" >
   <v>       0.00462963 </v>
   <v>       0.00462963 </v>
   <v>       0.00462963 </v>
   <v>       0.00462963 </v>
   <v>       0.00462963 </v>
   <v>       0.00462963 </v>
   <v>       0.00462963 </v>
   <v>       0.00462963 </v>
   <v>       0.00462963 </v>
   <v>       0.00462963 </v>
   <v>       0.00462963 </v>
   <v>       0.00462963 </v>
   <v>       0.00462963 </v>
   <v>       0.00462963 </v>
   <v>       0.00462963 </v>
   <v>       0.00462963 </v>
   <v>       0.00462963 </v>
   <v>       0.00462963 </v>
   <v>       0.00462963 </v>
   <v>       0.00462963 </v>
   <v>       0.00462963 </v>
   <v>       0.00462963 </v>
   <v>       0.00462963 </v>
   <v>       0.00462963 </v>
   <v>       0.00462963 </v>
   <v>       0.00462963 </v>
   <v>       0.00462963 </v>
   <v>       0.00462963 </v>
   <v>       0.00462963 </v>
   <v>       0.00462963 </v>
   <v>       0.00462963 </v>
   <v>       0.00462963 </v>
   <v>       0.00462963 </v>
   <v>       0.00462963 </v>
   <v>       0.00462963 </v>
   <v>       0.00462963 </v>
   <v>       0.00462963 </v>
   <v>       0.00462963 </v>
   <v>       0.00462963 </v>
   <v>       0.00462963 </v>
   <v>       0.00462963 </v>
   <v>       0.00462963 </v>
   <v>       0.00462963 </v>
   <v>       0.00462963 </v>
   <v>       0.00462963 </v>
   <v>       0.00462963 </v>
   <v>       0.00462963 </v>
   <v>       0.00462963 </v>
   <v>       0.00462963 </v>
   <v>       0.00462963 </v>
   <v>       0.00462963 </v>
   <v>       0.00462963 </v>
   <v>       0.00462963 </v>
   <v>       0.00462963 </v>
   <v>       0.00462963 </v>
   <v>       0.00462963 </v>
   <v>       0.00462963 </v>
   <v>       0.00462963 </v>
   <v>       0.00462963 </v>
   <v>       0.00462963 </v>
   <v>       0.00462963 </v>
   <v>       0.00462963 </v>
   <v>       0.00462963 </v>
   <v>       0.00462963 </v>
   <v>       0.00462963 </v>
   <v>       0.00462963 </v>
   <v>       0.00462963 </v>
   <v>       0.00462963 </v>
   <v>       0.00462963 </v>
   <v>       0.00462963 </v>
   <v>       0.00462963 </v>
   <v>       0.00462963 </v>
   <v>       0.00462963 </v>
   <v>       0.00462963 </v>
   <v>       0.00462963 </v>
   <v>       0.00462963 </v>
   <v>       0.00462963 </v>
   <v>       0.00462963 </v>
   <v>       0.00462963 </v>
   <v>       0.00462963 </v>
   <v>       0.00462963 </v>
   <v>       0.00462963 </v>
   <v>       0.00462963 </v>
   <v>       0.00462963 </v>
   <v>       0.00462963 </v>
   <v>       0.00462963 </v>
   <v>       0.00462963 </v>
   <v>       0.00462963 </v>
   <v>       0.00462963 </v>
   <v>       0.00462963 </v>
   <v>       0.00462963 </v>
   <v>       0.00462963 </v>
   <v>       0.00462963 </v>
   <v>       0.00462963 </v>
   <v>       0.00462963 </v>
   <v>       0.00462963 </v>
   <v>       0.00462963 </v>
   <v>       0.00462963 </v>
   <v>       0.00462963 </v>
   <v>       0.00462963 </v>
   <v>       0.00462963 </v>
   <v>       0.00462963 </v>
   <v>       0.00462963 </v>
   <v>       0.00462963 </v>
   <v>       0.00462963 </v>
   <v>       0.00462963 </v>
   <v>       0.00462963 </v>
   <v>       0.00462963 </v>
   <v>       0.00462963 </v>
   <v>       0.00462963 </v>
   <v>       0.00462963 </v>
   <v>       0.00462963 </v>
   <v>       0.00462963 </v>
   <v>       0.00462963 </v>
   <v>       0.00462963 </v>
   <v>       0.00462963 </v>
   <v>       0.00462963 </v>
   <v>       0.00462963 </v>
   <v>       0.00462963 </v>
   <v>       0.00462963 </v>
   <v>       0.00462963 </v>
   <v>       0.00462963 </v>
   <v>       0.00462963 </v>
   <v>       0.00462963 </v>
   <v>       0.00462963 </v>
   <v>       0.00462963 </v>
   <v>       0.00462963 </v>
   <v>       0.00462963 </v>
   <v>       0.00462963 </v>
   <v>       0.00462963 </v>
   <v>       0.00462963 </v>
   <v>       0.00462963 </v>
   <v>       0.00462963 </v>
   <v>       0.00462963 </v>
   <v>       0.00462963 </v>
   <v>       0.00462963 </v>
   <v>       0.00462963 </v>
   <v>       0.00462963 </v>
   <v>       0.00462963 </v>
   <v>       0.00462963 </v>
   <v>       0.00462963 </v>
   <v>       0.00462963 </v>
   <v>       0.00462963 </v>
   <v>       0.00462963 </v>
   <v>       0.00462963 </v>
   <v>       0.00462963 </v>
   <v>       0.00462963 </v>
   <v>       0.00462963 </v>
   <v>       0.00462963 </v>
   <v>       0.00462963 </v>
   <v>       0.00462963 </v>
   <v>       0.00462963 </v>
   <v>       0.00462963 </v>
   <v>       0.00462963 </v>
   <v>       0.00462963 </v>
   <v>       0.00462963 </v>
   <v>       0.00462963 </v>
   <v>       0.00462963 </v>
   <v>       0.00462963 </v>
   <v>       0.00462963 </v>
   <v>       0.00462963 </v>
   <v>       0.00462963 </v>
   <v>       0.00462963 </v>
   <v>       0.00462963 </v>
   <v>       0.00462963 </v>
   <v>       0.00462963 </v>
   <v>       0.00462963 </v>
   <v>       0.00462963 </v>
   <v>       0.00462963 </v>
   <v>       0.00462963 </v>
   <v>       0.00462963 </v>
   <v>       0.00462963 </v>
   <v>       0.00462963 </v>
   <v>       0.00462963 </v>
   <v>       0.00462963 </v>
   <v>       0.00462963 </v>
   <v>       0.00462963 </v>
   <v>       0.00462963 </v>
   <v>       0.00462963 </v>
   <v>       0.00462963 </v>
   <v>       0.00462963 </v>
   <v>       0.00462963 </v>
   <v>       0.00462963 </v>
   <v>       0.00462963 </v>
   <v>       0.00462963 </v>
   <v>       0.00462963 </v>
   <v>       0.00462963 </v>
   <v>       0.00462963 </v>
   <v>       0.00462963 </v>
   <v>       0.00462963 </v>
   <v>       0.00462963 </v>
   <v>       0.00462963 </v>
   <v>       0.00462963 </v>
   <v>       0.00462963 </v>
   <v>       0.00462963 </v>
   <v>       0.00462963 </v>
   <v>       0.00462963 </v>
   <v>       0.00462963 </v>
   <v>       0.00462963 </v>
   <v>       0.00462963 </v>
   <v>       0.00462963 </v>
   <v>       0.00462963 </v>
   <v>       0.00462963 </v>
   <v>       0.00462963 </v>
   <v>       0.00462963 </v>
   <v>       0.00462963 </v>
   <v>       0.00462963 </v>
   <v>       0.00462963 </v>
   <v>       0.00462963 </v>
   <v>       0.00462963 </v>
   <v>       0.00462963 </v>
   <v>       0.00462963 </v>
   <v>       0.00462963 </v>
   <v>       0.00462963 </v>
   <v>       0.00462963 </v>
   <v>       0.00462963 </v>
  </varray>
 </kpoints>
 <parameters>
  <separator name="general" >
   <i type="string" name="SYSTEM">Og_FCC</i>
   <i type="logical" name="LCOMPAT"> F  </i>
  </separator>
  <separator name="electronic" >
   <i type="string" name="PREC">accura</i>
   <i name="ENMAX">    300.00000000</i>
   <i name="ENAUG">    755.75300000</i>
   <i name="EDIFF">      0.00000001</i>
   <i type="int" name="IALGO">    38</i>
   <i type="int" name="IWAVPR">    10</i>
   <i type="int" name="NBANDS">    18</i>
   <i name="NELECT">      8.00000000</i>
   <i type="int" name="TURBO">     0</i>
   <i type="int" name="IRESTART">     0</i>
   <i type="int" name="NREBOOT">     0</i>
   <i type="int" name="NMIN">     0</i>
   <i name="EREF">      0.00000000</i>
   <separator name="electronic smearing" >
    <i type="int" name="ISMEAR">     0</i>
    <i name="SIGMA">      0.00100000</i>
    <i name="KSPACING">      0.50000000</i>
    <i type="logical" name="KGAMMA"> T  </i>
   </separator>
   <separator name="electronic projectors" >
    <i type="logical" name="LREAL"> F  </i>
    <v name="ROPT">      0.00000000</v>
    <i type="int" name="LMAXPAW">  -100</i>
    <i type="int" name="LMAXMIX">     2</i>
    <i type="logical" name="NLSPLINE"> F  </i>
   </separator>
   <separator name="electronic startup" >
    <i type="int" name="ISTART">     0</i>
    <i type="int" name="ICHARG">     2</i>
    <i type="int" name="INIWAV">     1</i>
   </separator>
   <separator name="electronic spin" >
    <i type="int" name="ISPIN">     1</i>
    <i type="logical" name="LNONCOLLINEAR"> T  </i>
    <v name="MAGMOM">      1.00000000      1.00000000      1.00000000</v>
    <i name="NUPDOWN">     -1.00000000</i>
    <i type="logical" name="LSORBIT"> T  </i>
    <v name="SAXIS">      0.00000000      0.00000000      1.00000000</v>
    <i type="logical" name="LSPIRAL"> F  </i>
    <v name="QSPIRAL">      0.00000000      0.00000000      0.00000000</v>
    <i type="logical" name="LZEROZ"> F  </i>
   </separator>
   <separator name="electronic exchange-correlation" >
    <i type="logical" name="LASPH"> F  </i>
    <i type="logical" name="LMETAGGA"> F  </i>
   </separator>
   <separator name="electronic convergence" >
    <i type="int" name="NELM">    50</i>
    <i type="int" name="NELMDL">    -5</i>
    <i type="int" name="NELMIN">     2</i>
    <i name="ENINI">    300.00000000</i>
    <separator name="electronic convergence detail" >
     <i type="logical" name="LDIAG"> T  </i>
     <i type="logical" name="LSUBROT"> F  </i>
     <i name="WEIMIN">      0.00000000</i>
     <i name="EBREAK">      0.00000000</i>
     <i name="DEPER">      0.30000000</i>
     <i type="int" name="NRMM">     4</i>
     <i name="TIME">      0.40000000</i>
    </separator>
   </separator>
   <separator name="electronic mixer" >
    <i name="AMIX">      0.40000000</i>
    <i name="BMIX">      1.00000000</i>
    <i name="AMIN">      0.10000000</i>
    <i name="AMIX_MAG">      1.60000000</i>
    <i name="BMIX_MAG">      1.00000000</i>
    <separator name="electronic mixer details" >
     <i type="int" name="IMIX">     4</i>
     <i type="logical" name="MIXFIRST"> F  </i>
     <i type="int" name="MAXMIX">    50</i>
     <i name="WC">    100.00000000</i>
     <i type="int" name="INIMIX">     1</i>
     <i type="int" name="MIXPRE">     1</i>
     <i type="int" name="MREMOVE">     5</i>
    </separator>
   </separator>
   <separator name="electronic dipolcorrection" >
    <i type="logical" name="LDIPOL"> F  </i>
    <i type="logical" name="LMONO"> F  </i>
    <i type="int" name="IDIPOL">     0</i>
    <i name="EPSILON">      1.00000000</i>
    <v name="DIPOL">   -100.00000000   -100.00000000   -100.00000000</v>
    <i name="EFIELD">      0.00000000</i>
   </separator>
  </separator>
  <separator name="grids" >
   <i type="int" name="NGX">    18</i>
   <i type="int" name="NGY">    18</i>
   <i type="int" name="NGZ">    18</i>
   <i type="int" name="NGXF">    36</i>
   <i type="int" name="NGYF">    36</i>
   <i type="int" name="NGZF">    36</i>
   <i type="logical" name="ADDGRID"> T  </i>
  </separator>
  <separator name="ionic" >
   <i type="int" name="NSW">     1</i>
   <i type="int" name="IBRION">    -1</i>
   <i type="int" name="MDALGO">     0</i>
   <i type="int" name="ISIF">     3</i>
   <i name="PSTRESS">      0.00000000</i>
   <i name="EDIFFG">      0.00001000</i>
   <i type="int" name="NFREE">     5</i>
   <i name="POTIM">      0.10000000</i>
   <i name="SMASS">     -3.00000000</i>
   <i name="SCALEE">      1.00000000</i>
  </separator>
  <separator name="ionic md" >
   <i name="TEBEG">      0.00010000</i>
   <i name="TEEND">      0.00010000</i>
   <i type="int" name="NBLOCK">     1</i>
   <i type="int" name="KBLOCK">     1</i>
   <i type="int" name="NPACO">   256</i>
   <i name="APACO">     16.00000000</i>
  </separator>
  <separator name="symmetry" >
   <i type="int" name="ISYM">     0</i>
   <i name="SYMPREC">      0.00000010</i>
  </separator>
  <separator name="dos" >
   <i type="int" name="LORBIT">     0</i>
   <v name="RWIGS">     -1.00000000</v>
   <i type="int" name="NEDOS">   301</i>
   <i name="EMIN">     10.00000000</i>
   <i name="EMAX">    -10.00000000</i>
   <i name="EFERMI">      0.00000000</i>
  </separator>
  <separator name="writing" >
   <i type="int" name="NWRITE">     2</i>
   <i type="logical" name="LWAVE"> T  </i>
   <i type="logical" name="LDOWNSAMPLE"> F  </i>
   <i type="logical" name="LCHARG"> F  </i>
   <i type="logical" name="LPARD"> F  </i>
   <i type="logical" name="LVTOT"> F  </i>
   <i type="logical" name="LVHAR"> F  </i>
   <i type="logical" name="LELF"> F  </i>
   <i type="logical" name="LOPTICS"> T  </i>
   <v name="STM">      0.00000000      0.00000000      0.00000000      0.00000000      0.00000000      0.00000000      0.00000000</v>
  </separator>
  <separator name="performance" >
   <i type="int" name="NPAR">     1</i>
   <i type="int" name="NSIM">     4</i>
   <i type="int" name="NBLK">    -1</i>
   <i type="logical" name="LPLANE"> T  </i>
   <i type="logical" name="LSCALAPACK"> T  </i>
   <i type="logical" name="LSCAAWARE"> F  </i>
   <i type="logical" name="LSCALU"> F  </i>
   <i type="logical" name="LASYNC"> F  </i>
   <i type="logical" name="LORBITALREAL"> F  </i>
  </separator>
  <separator name="miscellaneous" >
   <i type="int" name="IDIOT">     3</i>
   <i type="int" name="ISPECIAL">     0</i>
   <i type="logical" name="LMUSIC"> F  </i>
   <v name="POMASS">     20.18000000</v>
   <v name="DARWINR">      0.00000000</v>
   <v name="DARWINV">      1.00000000</v>
   <i type="logical" name="LCORR"> T  </i>
  </separator>
  <i type="logical" name="GGA_COMPAT"> F  </i>
  <i type="logical" name="LBERRY"> F  </i>
  <i type="int" name="ICORELEVEL">     0</i>
  <i type="logical" name="LDAU"> F  </i>
  <i type="int" name="I_CONSTRAINED_M">     0</i>
  <separator name="electronic exchange-correlation" >
   <i type="string" name="GGA">--</i>
   <i type="int" name="VOSKOWN">     0</i>
   <i type="logical" name="LHFCALC"> F  </i>
   <i type="string" name="PRECFOCK"></i>
   <i type="logical" name="LSYMGRAD"> F  </i>
   <i type="logical" name="LHFONE"> F  </i>
   <i type="logical" name="LRHFCALC"> F  </i>
   <i type="logical" name="LTHOMAS"> F  </i>
   <i type="logical" name="LMODELHF"> F  </i>
   <i name="ENCUT4O">     -1.00000000</i>
   <i type="int" name="EXXOEP">     0</i>
   <i type="int" name="FOURORBIT">     0</i>
   <i name="AEXX">      0.00000000</i>
   <i name="HFALPHA">      0.00000000</i>
   <i name="MCALPHA">      0.00000000</i>
   <i name="ALDAX">      1.00000000</i>
   <i name="AGGAX">      1.00000000</i>
   <i name="ALDAC">      1.00000000</i>
   <i name="AGGAC">      1.00000000</i>
   <i type="int" name="NKREDX">     1</i>
   <i type="int" name="NKREDY">     1</i>
   <i type="int" name="NKREDZ">     1</i>
   <i type="logical" name="SHIFTRED"> F  </i>
   <i type="logical" name="ODDONLY"> F  </i>
   <i type="logical" name="EVENONLY"> F  </i>
   <i type="int" name="LMAXFOCK">     0</i>
   <i type="int" name="NMAXFOCKAE">     0</i>
   <i type="logical" name="LFOCKAEDFT"> F  </i>
   <i name="HFSCREEN">      0.00000000</i>
   <i name="HFSCREENC">      0.00000000</i>
   <i type="int" name="NBANDSGWLOW">     0</i>
  </separator>
  <separator name="vdW DFT" >
   <i type="logical" name="LUSE_VDW"> F  </i>
   <i name="Zab_VDW">     -0.84910000</i>
   <i name="PARAM1">      0.12340000</i>
   <i name="PARAM2">      1.00000000</i>
   <i name="PARAM3">      0.00000000</i>
  </separator>
  <separator name="model GW" >
   <i type="int" name="MODEL_GW">     0</i>
   <i name="MODEL_EPS0">     13.34470917</i>
   <i name="MODEL_ALPHA">      1.00000000</i>
  </separator>
  <separator name="linear response parameters" >
   <i type="logical" name="LEPSILON"> F  </i>
   <i type="logical" name="LRPA"> F  </i>
   <i type="logical" name="LNABLA"> F  </i>
   <i type="logical" name="LVEL"> F  </i>
   <i type="int" name="KINTER">     0</i>
   <i name="CSHIFT">      0.10000000</i>
   <i name="OMEGAMAX">     -1.00000000</i>
   <i name="DEG_THRESHOLD">      0.00200000</i>
   <i name="RTIME">     -0.10000000</i>
   <i name="WPLASMAI">      0.00000000</i>
   <v name="DFIELD">      0.00000000      0.00000000      0.00000000</v>
   <v name="WPLASMA">      0.00000000      0.00000000      0.00000000      0.00000000      0.00000000      0.00000000      0.00000000      0.00000000      0.00000000</v>
  </separator>
  <separator name="orbital magnetization" >
   <i type="logical" name="NUCIND"> F  </i>
   <v name="MAGPOS">      0.00000000      0.00000000      0.00000000</v>
   <i type="logical" name="LNICSALL"> T  </i>
   <i type="logical" name="ORBITALMAG"> F  </i>
   <i type="logical" name="LMAGBLOCH"> F  </i>
   <i type="logical" name="LCHIMAG"> F  </i>
   <i type="logical" name="LGAUGE"> T  </i>
   <i type="int" name="MAGATOM">     0</i>
   <v name="MAGDIPOL">      0.00000000      0.00000000      0.00000000</v>
   <v name="AVECCONST">      0.00000000      0.00000000      0.00000000</v>
  </separator>
  <separator name="response functions" >
   <i type="logical" name="LADDER"> F  </i>
   <i type="logical" name="LRPAFORCE"> F  </i>
   <i type="logical" name="LFXC"> F  </i>
   <i type="logical" name="LHARTREE"> T  </i>
   <i type="int" name="IBSE">     0</i>
   <v type="int" name="KPOINT">    -1     0     0     0</v>
   <i type="logical" name="LTCTE"> F  </i>
   <i type="logical" name="LTETE"> F  </i>
   <i type="logical" name="LTRIPLET"> F  </i>
   <i type="logical" name="LFXCEPS"> F  </i>
   <i type="logical" name="LFXHEG"> F  </i>
   <i type="int" name="NATURALO">     2</i>
   <i type="logical" name="L2ORDER"> F  </i>
   <i type="logical" name="LMP2LT"> F  </i>
   <i type="logical" name="LUSEW"> F  </i>
   <i name="ENCUTGW">     -2.00000000</i>
   <i name="ENCUTGWSOFT">     -2.00000000</i>
   <i name="ENCUTLF">     -1.00000000</i>
   <i type="int" name="LMAXMP2">    -1</i>
   <i name="SCISSOR">      0.00000000</i>
   <i type="int" name="NOMEGA">     0</i>
   <i type="int" name="NOMEGAR">     0</i>
   <i type="int" name="NBANDSGW">    -1</i>
   <i type="int" name="NBANDSO">    -1</i>
   <i type="int" name="NBANDSV">    -1</i>
   <i type="int" name="NELM">    50</i>
   <i type="int" name="NELMHF">     1</i>
   <i type="int" name="DIM">     3</i>
   <i type="int" name="ANTIRES">     0</i>
   <i name="OMEGAMAX">    -30.00000000</i>
   <i name="OMEGAMIN">    -30.00000000</i>
   <i name="OMEGATL">   -200.00000000</i>
   <i type="int" name="OMEGAGRID">   140</i>
   <i name="CSHIFT">     -0.10000000</i>
   <i type="logical" name="SELFENERGY"> F  </i>
   <i type="logical" name="LSPECTRAL"> F  </i>
   <i type="logical" name="LSPECTRALGW"> F  </i>
   <i type="logical" name="LSINGLES"> F  </i>
   <i type="logical" name="LFERMIGW"> F  </i>
   <i type="logical" name="ODDONLYGW"> F  </i>
   <i type="logical" name="EVENONLYGW"> F  </i>
   <i type="int" name="NKREDLFX">     1</i>
   <i type="int" name="NKREDLFY">     1</i>
   <i type="int" name="NKREDLFZ">     1</i>
   <i type="int" name="MAXMEM">  2800</i>
   <i type="int" name="TELESCOPE">     0</i>
   <i type="int" name="TAUPAR">     1</i>
   <i type="int" name="OMEGAPAR">    -1</i>
   <i name="LAMBDA">      1.00000000</i>
  </separator>
  <separator name="External order field" >
   <i name="OFIELD_KAPPA">      0.00000000</i>
   <v name="OFIELD_K">      0.00000000      0.00000000      0.00000000</v>
   <i name="OFIELD_Q6_NEAR">      0.00000000</i>
   <i name="OFIELD_Q6_FAR">      0.00000000</i>
   <i name="OFIELD_A">      0.00000000</i>
  </separator>
 </parameters>
 <atominfo>
  <atoms>       1 </atoms>
  <types>       1 </types>
  <array name="atoms" >
   <dimension dim="1">ion</dimension>
   <field type="string">element</field>
   <field type="int">atomtype</field>
   <set>
    <rc><c>Ne</c><c>   1</c></rc>
   </set>
  </array>
  <array name="atomtypes" >
   <dimension dim="1">type</dimension>
   <field type="int">atomspertype</field>
   <field type="string">element</field>
   <field>mass</field>
   <field>valence</field>
   <field type="string">pseudopotential</field>
   <set>
    <rc><c>   1</c><c>Ne</c><c>     20.18000000</c><c>      8.00000000</c><c>  PAW_PBE Ne_GW 22Sep2014               </c></rc>
   </set>
  </array>
 </atominfo>
 <structure name="initialpos" >
  <crystal>
   <varray name="basis" >
    <v>       3.15663441       0.00000000       0.00000000 </v>
    <v>       1.57831721       2.73372559       0.00000000 </v>
    <v>       1.57831721       0.91124186       2.57738121 </v>
   </varray>
   <i name="volume">     22.24118194 </i>
   <varray name="rec_basis" >
    <v>       0.31679310      -0.18290058      -0.12933024 </v>
    <v>       0.00000000       0.36580116      -0.12933024 </v>
    <v>       0.00000000       0.00000000       0.38799072 </v>
   </varray>
  </crystal>
  <varray name="positions" >
   <v>       0.00000000       0.00000000       0.00000000 </v>
  </varray>
  <varray name="velocities" >
   <v>       0.00000000       0.00000000       0.00000000 </v>
  </varray>
 </structure>
 <calculation>
  <scstep>
   <time name="dav">    2.81    2.81</time>
   <time name="total">    2.90    2.90</time>
   <energy>
    <i name="alphaZ">     13.95530511 </i>
    <i name="ewald">   -473.25263642 </i>
    <i name="hartreedc">   -357.10447897 </i>
    <i name="XCdc">     54.26011624 </i>
    <i name="pawpsdc">    744.20879755 </i>
    <i name="pawaedc">   -792.62436852 </i>
    <i name="eentropy">     -0.00000000 </i>
    <i name="bandstr">   -110.60329948 </i>
    <i name="atom">    952.67806118 </i>
    <i name="e_fr_energy">     31.51749669 </i>
    <i name="e_wo_entrp">     31.51749669 </i>
    <i name="e_0_energy">     31.51749669 </i>
   </energy>
  </scstep>
  <scstep>
   <time name="dav">    2.98    2.98</time>
   <time name="total">    2.98    2.98</time>
   <energy>
    <i name="e_fr_energy">      0.38981263 </i>
    <i name="e_wo_entrp">      0.38981263 </i>
    <i name="e_0_energy">      0.38981263 </i>
   </energy>
  </scstep>
  <scstep>
   <time name="dav">    2.83    2.83</time>
   <time name="total">    2.83    2.83</time>
   <energy>
    <i name="e_fr_energy">     -0.12926698 </i>
    <i name="e_wo_entrp">     -0.12926698 </i>
    <i name="e_0_energy">     -0.12926698 </i>
   </energy>
  </scstep>
  <scstep>
   <time name="dav">    2.77    2.77</time>
   <time name="total">    2.77    2.77</time>
   <energy>
    <i name="e_fr_energy">     -0.13004287 </i>
    <i name="e_wo_entrp">     -0.13004287 </i>
    <i name="e_0_energy">     -0.13004287 </i>
   </energy>
  </scstep>
  <scstep>
   <time name="dav">    2.78    2.77</time>
   <time name="total">    3.49    3.48</time>
   <energy>
    <i name="e_fr_energy">     -0.13004454 </i>
    <i name="e_wo_entrp">     -0.13004454 </i>
    <i name="e_0_energy">     -0.13004454 </i>
   </energy>
  </scstep>
  <scstep>
   <time name="dav">    2.66    2.66</time>
   <time name="total">    3.47    3.46</time>
   <energy>
    <i name="e_fr_energy">      1.03059733 </i>
    <i name="e_wo_entrp">      1.03059733 </i>
    <i name="e_0_energy">      1.03059733 </i>
   </energy>
  </scstep>
  <scstep>
   <time name="dav">    2.62    2.62</time>
   <time name="total">    3.43    3.43</time>
   <energy>
    <i name="e_fr_energy">      0.62403433 </i>
    <i name="e_wo_entrp">      0.62403433 </i>
    <i name="e_0_energy">      0.62403433 </i>
   </energy>
  </scstep>
  <scstep>
   <time name="dav">    2.66    2.65</time>
   <time name="total">    3.46    3.46</time>
   <energy>
    <i name="e_fr_energy">      0.67244654 </i>
    <i name="e_wo_entrp">      0.67244654 </i>
    <i name="e_0_energy">      0.67244654 </i>
   </energy>
  </scstep>
  <scstep>
   <time name="dav">    2.62    2.62</time>
   <time name="total">    3.43    3.42</time>
   <energy>
    <i name="e_fr_energy">      0.62126962 </i>
    <i name="e_wo_entrp">      0.62126962 </i>
    <i name="e_0_energy">      0.62126962 </i>
   </energy>
  </scstep>
  <scstep>
   <time name="dav">    2.62    2.61</time>
   <time name="total">    3.42    3.41</time>
   <energy>
    <i name="e_fr_energy">      0.61871486 </i>
    <i name="e_wo_entrp">      0.61871486 </i>
    <i name="e_0_energy">      0.61871486 </i>
   </energy>
  </scstep>
  <scstep>
   <time name="dav">    2.75    2.75</time>
   <time name="total">    3.56    3.56</time>
   <energy>
    <i name="e_fr_energy">      0.61831076 </i>
    <i name="e_wo_entrp">      0.61831076 </i>
    <i name="e_0_energy">      0.61831076 </i>
   </energy>
  </scstep>
  <scstep>
   <time name="dav">    2.65    2.65</time>
   <time name="total">    3.46    3.46</time>
   <energy>
    <i name="e_fr_energy">      0.61826949 </i>
    <i name="e_wo_entrp">      0.61826949 </i>
    <i name="e_0_energy">      0.61826949 </i>
   </energy>
  </scstep>
  <scstep>
   <time name="dav">    2.63    2.63</time>
   <time name="total">    3.43    3.43</time>
   <energy>
    <i name="e_fr_energy">      0.61823401 </i>
    <i name="e_wo_entrp">      0.61823401 </i>
    <i name="e_0_energy">      0.61823401 </i>
   </energy>
  </scstep>
  <scstep>
   <time name="dav">    2.63    2.63</time>
   <time name="total">    3.43    3.43</time>
   <energy>
    <i name="e_fr_energy">      0.61821961 </i>
    <i name="e_wo_entrp">      0.61821961 </i>
    <i name="e_0_energy">      0.61821961 </i>
   </energy>
  </scstep>
  <scstep>
   <time name="dav">    2.63    2.63</time>
   <time name="total">    3.43    3.43</time>
   <energy>
    <i name="e_fr_energy">      0.61821601 </i>
    <i name="e_wo_entrp">      0.61821601 </i>
    <i name="e_0_energy">      0.61821601 </i>
   </energy>
  </scstep>
  <scstep>
   <time name="dav">    2.70    2.70</time>
   <time name="total">    3.50    3.50</time>
   <energy>
    <i name="e_fr_energy">      0.61821592 </i>
    <i name="e_wo_entrp">      0.61821592 </i>
    <i name="e_0_energy">      0.61821592 </i>
   </energy>
  </scstep>
  <scstep>
   <time name="dav">    2.64    2.64</time>
   <time name="total">    3.44    3.44</time>
   <energy>
    <i name="e_fr_energy">      0.61821600 </i>
    <i name="e_wo_entrp">      0.61821600 </i>
    <i name="e_0_energy">      0.61821600 </i>
   </energy>
  </scstep>
  <scstep>
   <time name="dav">    2.63    2.63</time>
   <time name="total">    3.43    3.43</time>
   <energy>
    <i name="e_fr_energy">      0.61821610 </i>
    <i name="e_wo_entrp">      0.61821610 </i>
    <i name="e_0_energy">      0.61821610 </i>
   </energy>
  </scstep>
  <scstep>
   <time name="dav">    2.57    2.57</time>
   <time name="total">    3.37    3.37</time>
   <energy>
    <i name="e_fr_energy">      0.61821613 </i>
    <i name="e_wo_entrp">      0.61821613 </i>
    <i name="e_0_energy">      0.61821613 </i>
   </energy>
  </scstep>
  <scstep>
   <time name="dav">    2.39    2.39</time>
   <time name="total">    3.19    3.19</time>
   <energy>
    <i name="e_fr_energy">      0.61821612 </i>
    <i name="e_wo_entrp">      0.61821612 </i>
    <i name="e_0_energy">      0.61821612 </i>
   </energy>
  </scstep>
  <scstep>
   <time name="dav">    2.32    2.32</time>
   <time name="total">    2.40    2.40</time>
   <energy>
    <i name="alphaZ">     13.95530511 </i>
    <i name="ewald">   -473.25263642 </i>
    <i name="hartreedc">   -357.30378199 </i>
    <i name="XCdc">     54.57520911 </i>
    <i name="pawpsdc">    733.65482346 </i>
    <i name="pawaedc">   -774.90794610 </i>
    <i name="eentropy">      0.00000000 </i>
    <i name="bandstr">   -148.78081824 </i>
    <i name="atom">    952.67806118 </i>
    <i name="e_fr_energy">      0.61821611 </i>
    <i name="e_wo_entrp">      0.61821611 </i>
    <i name="e_0_energy">      0.61821611 </i>
   </energy>
  </scstep>
  <structure>
   <crystal>
    <varray name="basis" >
     <v>       3.15663441       0.00000000       0.00000000 </v>
     <v>       1.57831721       2.73372559       0.00000000 </v>
     <v>       1.57831721       0.91124186       2.57738121 </v>
    </varray>
    <i name="volume">     22.24118194 </i>
    <varray name="rec_basis" >
     <v>       0.31679310      -0.18290058      -0.12933024 </v>
     <v>       0.00000000       0.36580116      -0.12933024 </v>
     <v>       0.00000000       0.00000000       0.38799072 </v>
    </varray>
   </crystal>
   <varray name="positions" >
    <v>       0.00000000       0.00000000       0.00000000 </v>
   </varray>
  </structure>
  <varray name="forces" >
   <v>       0.00000054       0.00000100       0.00000024 </v>
  </varray>
  <varray name="stress" >
   <v>   -2219.67693816       0.02073973       0.01599291 </v>
   <v>       0.02073917   -2219.69780005       0.00958969 </v>
   <v>       0.01599320       0.00958935   -2219.75005915 </v>
  </varray>
  <energy>
   <i name="e_fr_energy">      0.61821611 </i>
   <i name="e_wo_entrp">      0.61821611 </i>
   <i name="e_0_energy">      0.00000000 </i>
  </energy>
  <time name="totalsc">   82.44   82.42</time>
  <eigenvalues>
   <array>
    <dimension dim="1">band</dimension>
    <dimension dim="2">kpoint</dimension>
    <dimension dim="3">spin</dimension>
    <field>eigene</field>
    <field>occ</field>
    <set>
     <set comment="spin 1">
      <set comment="kpoint 1">
       <r>  -37.6778    1.0000 </r>
       <r>  -37.6777    1.0000 </r>
       <r>  -11.9702    1.0000 </r>
       <r>  -11.9701    1.0000 </r>
       <r>  -11.8752    1.0000 </r>
       <r>  -11.8752    1.0000 </r>
       <r>  -11.8751    1.0000 </r>
       <r>  -11.8751    1.0000 </r>
       <r>    0.9615    0.0000 </r>
       <r>    0.9616    0.0000 </r>
       <r>   19.3697    0.0000 </r>
       <r>   19.3697    0.0000 </r>
       <r>   19.3698    0.0000 </r>
       <r>   19.3698    0.0000 </r>
       <r>   19.3700    0.0000 </r>
       <r>   19.3700    0.0000 </r>
       <r>   20.8556    0.0000 </r>
       <r>   20.8556    0.0000 </r>
      </set>
      <set comment="kpoint 2">
       <r>  -37.6860    1.0000 </r>
       <r>  -37.6860    1.0000 </r>
       <r>  -12.4402    1.0000 </r>
       <r>  -12.4402    1.0000 </r>
       <r>  -12.1976    1.0000 </r>
       <r>  -12.1976    1.0000 </r>
       <r>  -12.1414    1.0000 </r>
       <r>  -12.1414    1.0000 </r>
       <r>    1.7178    0.0000 </r>
       <r>    1.7178    0.0000 </r>
       <r>   15.0935    0.0000 </r>
       <r>   15.0935    0.0000 </r>
       <r>   19.0929    0.0000 </r>
       <r>   19.0929    0.0000 </r>
       <r>   19.0944    0.0000 </r>
       <r>   19.0944    0.0000 </r>
       <r>   21.0051    0.0000 </r>
       <r>   21.0051    0.0000 </r>
      </set>
      <set comment="kpoint 3">
       <r>  -37.6256    1.0000 </r>
       <r>  -37.6256    1.0000 </r>
       <r>  -12.1782    1.0000 </r>
       <r>  -12.1782    1.0000 </r>
       <r>  -12.0166    1.0000 </r>
       <r>  -12.0166    1.0000 </r>
       <r>  -11.9653    1.0000 </r>
       <r>  -11.9653    1.0000 </r>
       <r>    3.8925    0.0000 </r>
       <r>    3.8925    0.0000 </r>
       <r>   10.7057    0.0000 </r>
       <r>   10.7057    0.0000 </r>
       <r>   18.3182    0.0000 </r>
       <r>   18.3182    0.0000 </r>
       <r>   18.3189    0.0000 </r>
       <r>   18.3189    0.0000 </r>
       <r>   19.7619    0.0000 </r>
       <r>   19.7619    0.0000 </r>
      </set>
      <set comment="kpoint 4">
       <r>  -37.6300    1.0000 </r>
       <r>  -37.6300    1.0000 </r>
       <r>  -12.4250    1.0000 </r>
       <r>  -12.4249    1.0000 </r>
       <r>  -12.3048    1.0000 </r>
       <r>  -12.3048    1.0000 </r>
       <r>  -12.2574    1.0000 </r>
       <r>  -12.2574    1.0000 </r>
       <r>    6.7833    0.0000 </r>
       <r>    6.7834    0.0000 </r>
       <r>    7.0491    0.0000 </r>
       <r>    7.0491    0.0000 </r>
       <r>   17.9001    0.0000 </r>
       <r>   17.9001    0.0000 </r>
       <r>   17.9003    0.0000 </r>
       <r>   17.9004    0.0000 </r>
       <r>   19.4970    0.0000 </r>
       <r>   19.4971    0.0000 </r>
      </set>
      <set comment="kpoint 5">
       <r>  -37.6256    1.0000 </r>
       <r>  -37.6256    1.0000 </r>
       <r>  -12.1782    1.0000 </r>
       <r>  -12.1782    1.0000 </r>
       <r>  -12.0166    1.0000 </r>
       <r>  -12.0166    1.0000 </r>
       <r>  -11.9653    1.0000 </r>
       <r>  -11.9653    1.0000 </r>
       <r>    3.8925    0.0000 </r>
       <r>    3.8925    0.0000 </r>
       <r>   10.7057    0.0000 </r>
       <r>   10.7057    0.0000 </r>
       <r>   18.3182    0.0000 </r>
       <r>   18.3182    0.0000 </r>
       <r>   18.3189    0.0000 </r>
       <r>   18.3189    0.0000 </r>
       <r>   19.7619    0.0000 </r>
       <r>   19.7619    0.0000 </r>
      </set>
      <set comment="kpoint 6">
       <r>  -37.6860    1.0000 </r>
       <r>  -37.6860    1.0000 </r>
       <r>  -12.4402    1.0000 </r>
       <r>  -12.4402    1.0000 </r>
       <r>  -12.1976    1.0000 </r>
       <r>  -12.1976    1.0000 </r>
       <r>  -12.1414    1.0000 </r>
       <r>  -12.1414    1.0000 </r>
       <r>    1.7178    0.0000 </r>
       <r>    1.7178    0.0000 </r>
       <r>   15.0935    0.0000 </r>
       <r>   15.0935    0.0000 </r>
       <r>   19.0929    0.0000 </r>
       <r>   19.0929    0.0000 </r>
       <r>   19.0944    0.0000 </r>
       <r>   19.0944    0.0000 </r>
       <r>   21.0051    0.0000 </r>
       <r>   21.0051    0.0000 </r>
      </set>
      <set comment="kpoint 7">
       <r>  -37.6860    1.0000 </r>
       <r>  -37.6860    1.0000 </r>
       <r>  -12.4402    1.0000 </r>
       <r>  -12.4402    1.0000 </r>
       <r>  -12.1976    1.0000 </r>
       <r>  -12.1976    1.0000 </r>
       <r>  -12.1414    1.0000 </r>
       <r>  -12.1414    1.0000 </r>
       <r>    1.7178    0.0000 </r>
       <r>    1.7178    0.0000 </r>
       <r>   15.0935    0.0000 </r>
       <r>   15.0935    0.0000 </r>
       <r>   19.0929    0.0000 </r>
       <r>   19.0930    0.0000 </r>
       <r>   19.0944    0.0000 </r>
       <r>   19.0944    0.0000 </r>
       <r>   21.0050    0.0000 </r>
       <r>   21.0051    0.0000 </r>
      </set>
      <set comment="kpoint 8">
       <r>  -37.6642    1.0000 </r>
       <r>  -37.6642    1.0000 </r>
       <r>  -12.2558    1.0000 </r>
       <r>  -12.2558    1.0000 </r>
       <r>  -12.0766    1.0000 </r>
       <r>  -12.0766    1.0000 </r>
       <r>  -12.0249    1.0000 </r>
       <r>  -12.0249    1.0000 </r>
       <r>    1.9657    0.0000 </r>
       <r>    1.9657    0.0000 </r>
       <r>   15.8440    0.0000 </r>
       <r>   15.8440    0.0000 </r>
       <r>   17.9783    0.0000 </r>
       <r>   17.9784    0.0000 </r>
       <r>   17.9835    0.0000 </r>
       <r>   17.9835    0.0000 </r>
       <r>   18.1548    0.0000 </r>
       <r>   18.1548    0.0000 </r>
      </set>
      <set comment="kpoint 9">
       <r>  -37.6465    1.0000 </r>
       <r>  -37.6465    1.0000 </r>
       <r>  -12.4336    1.0000 </r>
       <r>  -12.4336    1.0000 </r>
       <r>  -12.2787    1.0000 </r>
       <r>  -12.2787    1.0000 </r>
       <r>  -12.2219    1.0000 </r>
       <r>  -12.2219    1.0000 </r>
       <r>    3.6124    0.0000 </r>
       <r>    3.6124    0.0000 </r>
       <r>   12.3510    0.0000 </r>
       <r>   12.3510    0.0000 </r>
       <r>   15.4381    0.0000 </r>
       <r>   15.4381    0.0000 </r>
       <r>   17.3646    0.0000 </r>
       <r>   17.3646    0.0000 </r>
       <r>   19.1118    0.0000 </r>
       <r>   19.1119    0.0000 </r>
      </set>
      <set comment="kpoint 10">
       <r>  -37.6191    1.0000 </r>
       <r>  -37.6191    1.0000 </r>
       <r>  -12.4171    1.0000 </r>
       <r>  -12.4171    1.0000 </r>
       <r>  -12.2459    1.0000 </r>
       <r>  -12.2459    1.0000 </r>
       <r>  -12.1930    1.0000 </r>
       <r>  -12.1930    1.0000 </r>
       <r>    6.3024    0.0000 </r>
       <r>    6.3024    0.0000 </r>
       <r>    8.5607    0.0000 </r>
       <r>    8.5608    0.0000 </r>
       <r>   14.3235    0.0000 </r>
       <r>   14.3235    0.0000 </r>
       <r>   17.3085    0.0000 </r>
       <r>   17.3085    0.0000 </r>
       <r>   19.7379    0.0000 </r>
       <r>   19.7379    0.0000 </r>
      </set>
      <set comment="kpoint 11">
       <r>  -37.6161    1.0000 </r>
       <r>  -37.6161    1.0000 </r>
       <r>  -12.3390    1.0000 </r>
       <r>  -12.3390    1.0000 </r>
       <r>  -12.1339    1.0000 </r>
       <r>  -12.1339    1.0000 </r>
       <r>  -12.0349    1.0000 </r>
       <r>  -12.0349    1.0000 </r>
       <r>    5.3411    0.0000 </r>
       <r>    5.3411    0.0000 </r>
       <r>    9.8006    0.0000 </r>
       <r>    9.8006    0.0000 </r>
       <r>   13.9482    0.0000 </r>
       <r>   13.9482    0.0000 </r>
       <r>   18.0714    0.0000 </r>
       <r>   18.0714    0.0000 </r>
       <r>   20.9657    0.0000 </r>
       <r>   20.9657    0.0000 </r>
      </set>
      <set comment="kpoint 12">
       <r>  -37.6560    1.0000 </r>
       <r>  -37.6560    1.0000 </r>
       <r>  -12.3527    1.0000 </r>
       <r>  -12.3527    1.0000 </r>
       <r>  -12.2642    1.0000 </r>
       <r>  -12.2642    1.0000 </r>
       <r>  -12.1586    1.0000 </r>
       <r>  -12.1586    1.0000 </r>
       <r>    2.9496    0.0000 </r>
       <r>    2.9496    0.0000 </r>
       <r>   13.3422    0.0000 </r>
       <r>   13.3423    0.0000 </r>
       <r>   15.0499    0.0000 </r>
       <r>   15.0499    0.0000 </r>
       <r>   19.7852    0.0000 </r>
       <r>   19.7852    0.0000 </r>
       <r>   21.0378    0.0000 </r>
       <r>   21.0378    0.0000 </r>
      </set>
      <set comment="kpoint 13">
       <r>  -37.6256    1.0000 </r>
       <r>  -37.6256    1.0000 </r>
       <r>  -12.1782    1.0000 </r>
       <r>  -12.1782    1.0000 </r>
       <r>  -12.0166    1.0000 </r>
       <r>  -12.0166    1.0000 </r>
       <r>  -11.9653    1.0000 </r>
       <r>  -11.9653    1.0000 </r>
       <r>    3.8925    0.0000 </r>
       <r>    3.8925    0.0000 </r>
       <r>   10.7057    0.0000 </r>
       <r>   10.7057    0.0000 </r>
       <r>   18.3182    0.0000 </r>
       <r>   18.3182    0.0000 </r>
       <r>   18.3189    0.0000 </r>
       <r>   18.3189    0.0000 </r>
       <r>   19.7619    0.0000 </r>
       <r>   19.7619    0.0000 </r>
      </set>
      <set comment="kpoint 14">
       <r>  -37.6465    1.0000 </r>
       <r>  -37.6465    1.0000 </r>
       <r>  -12.4336    1.0000 </r>
       <r>  -12.4336    1.0000 </r>
       <r>  -12.2787    1.0000 </r>
       <r>  -12.2787    1.0000 </r>
       <r>  -12.2219    1.0000 </r>
       <r>  -12.2219    1.0000 </r>
       <r>    3.6124    0.0000 </r>
       <r>    3.6124    0.0000 </r>
       <r>   12.3510    0.0000 </r>
       <r>   12.3510    0.0000 </r>
       <r>   15.4381    0.0000 </r>
       <r>   15.4381    0.0000 </r>
       <r>   17.3646    0.0000 </r>
       <r>   17.3646    0.0000 </r>
       <r>   19.1118    0.0000 </r>
       <r>   19.1119    0.0000 </r>
      </set>
      <set comment="kpoint 15">
       <r>  -37.6257    1.0000 </r>
       <r>  -37.6257    1.0000 </r>
       <r>  -12.4040    1.0000 </r>
       <r>  -12.4040    1.0000 </r>
       <r>  -12.2680    1.0000 </r>
       <r>  -12.2680    1.0000 </r>
       <r>  -12.2199    1.0000 </r>
       <r>  -12.2199    1.0000 </r>
       <r>    4.6661    0.0000 </r>
       <r>    4.6661    0.0000 </r>
       <r>   12.7191    0.0000 </r>
       <r>   12.7191    0.0000 </r>
       <r>   13.3362    0.0000 </r>
       <r>   13.3362    0.0000 </r>
       <r>   16.7343    0.0000 </r>
       <r>   16.7344    0.0000 </r>
       <r>   16.7444    0.0000 </r>
       <r>   16.7444    0.0000 </r>
      </set>
      <set comment="kpoint 16">
       <r>  -37.6038    1.0000 </r>
       <r>  -37.6038    1.0000 </r>
       <r>  -12.3514    1.0000 </r>
       <r>  -12.3514    1.0000 </r>
       <r>  -12.2607    1.0000 </r>
       <r>  -12.2607    1.0000 </r>
       <r>  -12.2022    1.0000 </r>
       <r>  -12.2022    1.0000 </r>
       <r>    6.7947    0.0000 </r>
       <r>    6.7947    0.0000 </r>
       <r>   10.3540    0.0000 </r>
       <r>   10.3540    0.0000 </r>
       <r>   11.6179    0.0000 </r>
       <r>   11.6179    0.0000 </r>
       <r>   16.6242    0.0000 </r>
       <r>   16.6242    0.0000 </r>
       <r>   17.1021    0.0000 </r>
       <r>   17.1022    0.0000 </r>
      </set>
      <set comment="kpoint 17">
       <r>  -37.6167    1.0000 </r>
       <r>  -37.6167    1.0000 </r>
       <r>  -12.5372    1.0000 </r>
       <r>  -12.5372    1.0000 </r>
       <r>  -12.4362    1.0000 </r>
       <r>  -12.4362    1.0000 </r>
       <r>  -12.2706    1.0000 </r>
       <r>  -12.2706    1.0000 </r>
       <r>    7.5386    0.0000 </r>
       <r>    7.5386    0.0000 </r>
       <r>    9.7545    0.0000 </r>
       <r>    9.7545    0.0000 </r>
       <r>   10.3820    0.0000 </r>
       <r>   10.3820    0.0000 </r>
       <r>   17.0495    0.0000 </r>
       <r>   17.0495    0.0000 </r>
       <r>   18.4340    0.0000 </r>
       <r>   18.4340    0.0000 </r>
      </set>
      <set comment="kpoint 18">
       <r>  -37.6161    1.0000 </r>
       <r>  -37.6161    1.0000 </r>
       <r>  -12.3390    1.0000 </r>
       <r>  -12.3389    1.0000 </r>
       <r>  -12.1339    1.0000 </r>
       <r>  -12.1339    1.0000 </r>
       <r>  -12.0349    1.0000 </r>
       <r>  -12.0349    1.0000 </r>
       <r>    5.3411    0.0000 </r>
       <r>    5.3411    0.0000 </r>
       <r>    9.8006    0.0000 </r>
       <r>    9.8006    0.0000 </r>
       <r>   13.9482    0.0000 </r>
       <r>   13.9482    0.0000 </r>
       <r>   18.0714    0.0000 </r>
       <r>   18.0714    0.0000 </r>
       <r>   20.9657    0.0000 </r>
       <r>   20.9657    0.0000 </r>
      </set>
      <set comment="kpoint 19">
       <r>  -37.6300    1.0000 </r>
       <r>  -37.6300    1.0000 </r>
       <r>  -12.4250    1.0000 </r>
       <r>  -12.4249    1.0000 </r>
       <r>  -12.3048    1.0000 </r>
       <r>  -12.3048    1.0000 </r>
       <r>  -12.2574    1.0000 </r>
       <r>  -12.2574    1.0000 </r>
       <r>    6.7833    0.0000 </r>
       <r>    6.7834    0.0000 </r>
       <r>    7.0491    0.0000 </r>
       <r>    7.0491    0.0000 </r>
       <r>   17.9001    0.0000 </r>
       <r>   17.9001    0.0000 </r>
       <r>   17.9004    0.0000 </r>
       <r>   17.9004    0.0000 </r>
       <r>   19.4970    0.0000 </r>
       <r>   19.4971    0.0000 </r>
      </set>
      <set comment="kpoint 20">
       <r>  -37.6191    1.0000 </r>
       <r>  -37.6191    1.0000 </r>
       <r>  -12.4171    1.0000 </r>
       <r>  -12.4171    1.0000 </r>
       <r>  -12.2459    1.0000 </r>
       <r>  -12.2459    1.0000 </r>
       <r>  -12.1930    1.0000 </r>
       <r>  -12.1930    1.0000 </r>
       <r>    6.3024    0.0000 </r>
       <r>    6.3024    0.0000 </r>
       <r>    8.5607    0.0000 </r>
       <r>    8.5608    0.0000 </r>
       <r>   14.3235    0.0000 </r>
       <r>   14.3235    0.0000 </r>
       <r>   17.3085    0.0000 </r>
       <r>   17.3085    0.0000 </r>
       <r>   19.7379    0.0000 </r>
       <r>   19.7379    0.0000 </r>
      </set>
      <set comment="kpoint 21">
       <r>  -37.6038    1.0000 </r>
       <r>  -37.6038    1.0000 </r>
       <r>  -12.3514    1.0000 </r>
       <r>  -12.3514    1.0000 </r>
       <r>  -12.2607    1.0000 </r>
       <r>  -12.2607    1.0000 </r>
       <r>  -12.2022    1.0000 </r>
       <r>  -12.2022    1.0000 </r>
       <r>    6.7947    0.0000 </r>
       <r>    6.7947    0.0000 </r>
       <r>   10.3540    0.0000 </r>
       <r>   10.3540    0.0000 </r>
       <r>   11.6179    0.0000 </r>
       <r>   11.6179    0.0000 </r>
       <r>   16.6242    0.0000 </r>
       <r>   16.6242    0.0000 </r>
       <r>   17.1021    0.0000 </r>
       <r>   17.1022    0.0000 </r>
      </set>
      <set comment="kpoint 22">
       <r>  -37.5890    1.0000 </r>
       <r>  -37.5890    1.0000 </r>
       <r>  -12.3972    1.0000 </r>
       <r>  -12.3972    1.0000 </r>
       <r>  -12.0613    1.0000 </r>
       <r>  -12.0613    1.0000 </r>
       <r>  -12.0055    1.0000 </r>
       <r>  -12.0055    1.0000 </r>
       <r>    7.8772    0.0000 </r>
       <r>    7.8772    0.0000 </r>
       <r>    8.8486    0.0000 </r>
       <r>    8.8486    0.0000 </r>
       <r>   12.5009    0.0000 </r>
       <r>   12.5009    0.0000 </r>
       <r>   16.4477    0.0000 </r>
       <r>   16.4477    0.0000 </r>
       <r>   16.4593    0.0000 </r>
       <r>   16.4594    0.0000 </r>
      </set>
      <set comment="kpoint 23">
       <r>  -37.6038    1.0000 </r>
       <r>  -37.6038    1.0000 </r>
       <r>  -12.3514    1.0000 </r>
       <r>  -12.3514    1.0000 </r>
       <r>  -12.2607    1.0000 </r>
       <r>  -12.2607    1.0000 </r>
       <r>  -12.2022    1.0000 </r>
       <r>  -12.2022    1.0000 </r>
       <r>    6.7947    0.0000 </r>
       <r>    6.7947    0.0000 </r>
       <r>   10.3540    0.0000 </r>
       <r>   10.3540    0.0000 </r>
       <r>   11.6179    0.0000 </r>
       <r>   11.6179    0.0000 </r>
       <r>   16.6242    0.0000 </r>
       <r>   16.6242    0.0000 </r>
       <r>   17.1021    0.0000 </r>
       <r>   17.1022    0.0000 </r>
      </set>
      <set comment="kpoint 24">
       <r>  -37.6191    1.0000 </r>
       <r>  -37.6191    1.0000 </r>
       <r>  -12.4171    1.0000 </r>
       <r>  -12.4171    1.0000 </r>
       <r>  -12.2459    1.0000 </r>
       <r>  -12.2459    1.0000 </r>
       <r>  -12.1930    1.0000 </r>
       <r>  -12.1930    1.0000 </r>
       <r>    6.3024    0.0000 </r>
       <r>    6.3024    0.0000 </r>
       <r>    8.5607    0.0000 </r>
       <r>    8.5608    0.0000 </r>
       <r>   14.3235    0.0000 </r>
       <r>   14.3235    0.0000 </r>
       <r>   17.3085    0.0000 </r>
       <r>   17.3085    0.0000 </r>
       <r>   19.7379    0.0000 </r>
       <r>   19.7379    0.0000 </r>
      </set>
      <set comment="kpoint 25">
       <r>  -37.6256    1.0000 </r>
       <r>  -37.6256    1.0000 </r>
       <r>  -12.1782    1.0000 </r>
       <r>  -12.1782    1.0000 </r>
       <r>  -12.0166    1.0000 </r>
       <r>  -12.0166    1.0000 </r>
       <r>  -11.9653    1.0000 </r>
       <r>  -11.9653    1.0000 </r>
       <r>    3.8925    0.0000 </r>
       <r>    3.8925    0.0000 </r>
       <r>   10.7057    0.0000 </r>
       <r>   10.7057    0.0000 </r>
       <r>   18.3182    0.0000 </r>
       <r>   18.3182    0.0000 </r>
       <r>   18.3189    0.0000 </r>
       <r>   18.3189    0.0000 </r>
       <r>   19.7619    0.0000 </r>
       <r>   19.7619    0.0000 </r>
      </set>
      <set comment="kpoint 26">
       <r>  -37.6161    1.0000 </r>
       <r>  -37.6161    1.0000 </r>
       <r>  -12.3390    1.0000 </r>
       <r>  -12.3389    1.0000 </r>
       <r>  -12.1339    1.0000 </r>
       <r>  -12.1339    1.0000 </r>
       <r>  -12.0349    1.0000 </r>
       <r>  -12.0349    1.0000 </r>
       <r>    5.3411    0.0000 </r>
       <r>    5.3411    0.0000 </r>
       <r>    9.8006    0.0000 </r>
       <r>    9.8006    0.0000 </r>
       <r>   13.9482    0.0000 </r>
       <r>   13.9482    0.0000 </r>
       <r>   18.0714    0.0000 </r>
       <r>   18.0714    0.0000 </r>
       <r>   20.9657    0.0000 </r>
       <r>   20.9657    0.0000 </r>
      </set>
      <set comment="kpoint 27">
       <r>  -37.6167    1.0000 </r>
       <r>  -37.6167    1.0000 </r>
       <r>  -12.5372    1.0000 </r>
       <r>  -12.5372    1.0000 </r>
       <r>  -12.4362    1.0000 </r>
       <r>  -12.4362    1.0000 </r>
       <r>  -12.2706    1.0000 </r>
       <r>  -12.2706    1.0000 </r>
       <r>    7.5386    0.0000 </r>
       <r>    7.5386    0.0000 </r>
       <r>    9.7545    0.0000 </r>
       <r>    9.7545    0.0000 </r>
       <r>   10.3820    0.0000 </r>
       <r>   10.3820    0.0000 </r>
       <r>   17.0495    0.0000 </r>
       <r>   17.0495    0.0000 </r>
       <r>   18.4340    0.0000 </r>
       <r>   18.4340    0.0000 </r>
      </set>
      <set comment="kpoint 28">
       <r>  -37.6038    1.0000 </r>
       <r>  -37.6038    1.0000 </r>
       <r>  -12.3514    1.0000 </r>
       <r>  -12.3514    1.0000 </r>
       <r>  -12.2607    1.0000 </r>
       <r>  -12.2607    1.0000 </r>
       <r>  -12.2022    1.0000 </r>
       <r>  -12.2022    1.0000 </r>
       <r>    6.7947    0.0000 </r>
       <r>    6.7947    0.0000 </r>
       <r>   10.3540    0.0000 </r>
       <r>   10.3540    0.0000 </r>
       <r>   11.6179    0.0000 </r>
       <r>   11.6179    0.0000 </r>
       <r>   16.6242    0.0000 </r>
       <r>   16.6242    0.0000 </r>
       <r>   17.1021    0.0000 </r>
       <r>   17.1022    0.0000 </r>
      </set>
      <set comment="kpoint 29">
       <r>  -37.6257    1.0000 </r>
       <r>  -37.6257    1.0000 </r>
       <r>  -12.4040    1.0000 </r>
       <r>  -12.4040    1.0000 </r>
       <r>  -12.2680    1.0000 </r>
       <r>  -12.2680    1.0000 </r>
       <r>  -12.2199    1.0000 </r>
       <r>  -12.2199    1.0000 </r>
       <r>    4.6661    0.0000 </r>
       <r>    4.6661    0.0000 </r>
       <r>   12.7191    0.0000 </r>
       <r>   12.7191    0.0000 </r>
       <r>   13.3362    0.0000 </r>
       <r>   13.3362    0.0000 </r>
       <r>   16.7343    0.0000 </r>
       <r>   16.7344    0.0000 </r>
       <r>   16.7444    0.0000 </r>
       <r>   16.7444    0.0000 </r>
      </set>
      <set comment="kpoint 30">
       <r>  -37.6465    1.0000 </r>
       <r>  -37.6465    1.0000 </r>
       <r>  -12.4336    1.0000 </r>
       <r>  -12.4336    1.0000 </r>
       <r>  -12.2787    1.0000 </r>
       <r>  -12.2787    1.0000 </r>
       <r>  -12.2219    1.0000 </r>
       <r>  -12.2219    1.0000 </r>
       <r>    3.6124    0.0000 </r>
       <r>    3.6124    0.0000 </r>
       <r>   12.3510    0.0000 </r>
       <r>   12.3510    0.0000 </r>
       <r>   15.4381    0.0000 </r>
       <r>   15.4381    0.0000 </r>
       <r>   17.3646    0.0000 </r>
       <r>   17.3646    0.0000 </r>
       <r>   19.1118    0.0000 </r>
       <r>   19.1119    0.0000 </r>
      </set>
      <set comment="kpoint 31">
       <r>  -37.6860    1.0000 </r>
       <r>  -37.6860    1.0000 </r>
       <r>  -12.4402    1.0000 </r>
       <r>  -12.4402    1.0000 </r>
       <r>  -12.1976    1.0000 </r>
       <r>  -12.1976    1.0000 </r>
       <r>  -12.1414    1.0000 </r>
       <r>  -12.1414    1.0000 </r>
       <r>    1.7178    0.0000 </r>
       <r>    1.7178    0.0000 </r>
       <r>   15.0935    0.0000 </r>
       <r>   15.0935    0.0000 </r>
       <r>   19.0929    0.0000 </r>
       <r>   19.0930    0.0000 </r>
       <r>   19.0944    0.0000 </r>
       <r>   19.0944    0.0000 </r>
       <r>   21.0050    0.0000 </r>
       <r>   21.0051    0.0000 </r>
      </set>
      <set comment="kpoint 32">
       <r>  -37.6560    1.0000 </r>
       <r>  -37.6560    1.0000 </r>
       <r>  -12.3527    1.0000 </r>
       <r>  -12.3527    1.0000 </r>
       <r>  -12.2642    1.0000 </r>
       <r>  -12.2642    1.0000 </r>
       <r>  -12.1586    1.0000 </r>
       <r>  -12.1586    1.0000 </r>
       <r>    2.9496    0.0000 </r>
       <r>    2.9496    0.0000 </r>
       <r>   13.3422    0.0000 </r>
       <r>   13.3423    0.0000 </r>
       <r>   15.0499    0.0000 </r>
       <r>   15.0499    0.0000 </r>
       <r>   19.7852    0.0000 </r>
       <r>   19.7852    0.0000 </r>
       <r>   21.0378    0.0000 </r>
       <r>   21.0378    0.0000 </r>
      </set>
      <set comment="kpoint 33">
       <r>  -37.6161    1.0000 </r>
       <r>  -37.6161    1.0000 </r>
       <r>  -12.3390    1.0000 </r>
       <r>  -12.3390    1.0000 </r>
       <r>  -12.1339    1.0000 </r>
       <r>  -12.1339    1.0000 </r>
       <r>  -12.0349    1.0000 </r>
       <r>  -12.0349    1.0000 </r>
       <r>    5.3411    0.0000 </r>
       <r>    5.3411    0.0000 </r>
       <r>    9.8006    0.0000 </r>
       <r>    9.8006    0.0000 </r>
       <r>   13.9482    0.0000 </r>
       <r>   13.9482    0.0000 </r>
       <r>   18.0714    0.0000 </r>
       <r>   18.0714    0.0000 </r>
       <r>   20.9657    0.0000 </r>
       <r>   20.9657    0.0000 </r>
      </set>
      <set comment="kpoint 34">
       <r>  -37.6191    1.0000 </r>
       <r>  -37.6191    1.0000 </r>
       <r>  -12.4171    1.0000 </r>
       <r>  -12.4171    1.0000 </r>
       <r>  -12.2459    1.0000 </r>
       <r>  -12.2459    1.0000 </r>
       <r>  -12.1930    1.0000 </r>
       <r>  -12.1930    1.0000 </r>
       <r>    6.3024    0.0000 </r>
       <r>    6.3024    0.0000 </r>
       <r>    8.5607    0.0000 </r>
       <r>    8.5608    0.0000 </r>
       <r>   14.3235    0.0000 </r>
       <r>   14.3235    0.0000 </r>
       <r>   17.3085    0.0000 </r>
       <r>   17.3085    0.0000 </r>
       <r>   19.7379    0.0000 </r>
       <r>   19.7379    0.0000 </r>
      </set>
      <set comment="kpoint 35">
       <r>  -37.6465    1.0000 </r>
       <r>  -37.6465    1.0000 </r>
       <r>  -12.4336    1.0000 </r>
       <r>  -12.4336    1.0000 </r>
       <r>  -12.2787    1.0000 </r>
       <r>  -12.2787    1.0000 </r>
       <r>  -12.2219    1.0000 </r>
       <r>  -12.2219    1.0000 </r>
       <r>    3.6124    0.0000 </r>
       <r>    3.6124    0.0000 </r>
       <r>   12.3510    0.0000 </r>
       <r>   12.3510    0.0000 </r>
       <r>   15.4381    0.0000 </r>
       <r>   15.4381    0.0000 </r>
       <r>   17.3646    0.0000 </r>
       <r>   17.3646    0.0000 </r>
       <r>   19.1118    0.0000 </r>
       <r>   19.1119    0.0000 </r>
      </set>
      <set comment="kpoint 36">
       <r>  -37.6642    1.0000 </r>
       <r>  -37.6642    1.0000 </r>
       <r>  -12.2558    1.0000 </r>
       <r>  -12.2558    1.0000 </r>
       <r>  -12.0766    1.0000 </r>
       <r>  -12.0766    1.0000 </r>
       <r>  -12.0249    1.0000 </r>
       <r>  -12.0249    1.0000 </r>
       <r>    1.9657    0.0000 </r>
       <r>    1.9657    0.0000 </r>
       <r>   15.8440    0.0000 </r>
       <r>   15.8440    0.0000 </r>
       <r>   17.9783    0.0000 </r>
       <r>   17.9784    0.0000 </r>
       <r>   17.9835    0.0000 </r>
       <r>   17.9835    0.0000 </r>
       <r>   18.1548    0.0000 </r>
       <r>   18.1548    0.0000 </r>
      </set>
      <set comment="kpoint 37">
       <r>  -37.6860    1.0000 </r>
       <r>  -37.6860    1.0000 </r>
       <r>  -12.4403    1.0000 </r>
       <r>  -12.4403    1.0000 </r>
       <r>  -12.1976    1.0000 </r>
       <r>  -12.1976    1.0000 </r>
       <r>  -12.1414    1.0000 </r>
       <r>  -12.1414    1.0000 </r>
       <r>    1.7178    0.0000 </r>
       <r>    1.7178    0.0000 </r>
       <r>   15.0934    0.0000 </r>
       <r>   15.0935    0.0000 </r>
       <r>   19.0928    0.0000 </r>
       <r>   19.0929    0.0000 </r>
       <r>   19.0943    0.0000 </r>
       <r>   19.0943    0.0000 </r>
       <r>   21.0049    0.0000 </r>
       <r>   21.0049    0.0000 </r>
      </set>
      <set comment="kpoint 38">
       <r>  -37.6642    1.0000 </r>
       <r>  -37.6642    1.0000 </r>
       <r>  -12.2558    1.0000 </r>
       <r>  -12.2558    1.0000 </r>
       <r>  -12.0766    1.0000 </r>
       <r>  -12.0766    1.0000 </r>
       <r>  -12.0249    1.0000 </r>
       <r>  -12.0248    1.0000 </r>
       <r>    1.9657    0.0000 </r>
       <r>    1.9657    0.0000 </r>
       <r>   15.8440    0.0000 </r>
       <r>   15.8440    0.0000 </r>
       <r>   17.9783    0.0000 </r>
       <r>   17.9784    0.0000 </r>
       <r>   17.9835    0.0000 </r>
       <r>   17.9835    0.0000 </r>
       <r>   18.1547    0.0000 </r>
       <r>   18.1548    0.0000 </r>
      </set>
      <set comment="kpoint 39">
       <r>  -37.6465    1.0000 </r>
       <r>  -37.6465    1.0000 </r>
       <r>  -12.4336    1.0000 </r>
       <r>  -12.4336    1.0000 </r>
       <r>  -12.2787    1.0000 </r>
       <r>  -12.2787    1.0000 </r>
       <r>  -12.2219    1.0000 </r>
       <r>  -12.2219    1.0000 </r>
       <r>    3.6124    0.0000 </r>
       <r>    3.6124    0.0000 </r>
       <r>   12.3511    0.0000 </r>
       <r>   12.3511    0.0000 </r>
       <r>   15.4380    0.0000 </r>
       <r>   15.4380    0.0000 </r>
       <r>   17.3646    0.0000 </r>
       <r>   17.3646    0.0000 </r>
       <r>   19.1120    0.0000 </r>
       <r>   19.1120    0.0000 </r>
      </set>
      <set comment="kpoint 40">
       <r>  -37.6191    1.0000 </r>
       <r>  -37.6191    1.0000 </r>
       <r>  -12.4171    1.0000 </r>
       <r>  -12.4171    1.0000 </r>
       <r>  -12.2459    1.0000 </r>
       <r>  -12.2459    1.0000 </r>
       <r>  -12.1930    1.0000 </r>
       <r>  -12.1930    1.0000 </r>
       <r>    6.3024    0.0000 </r>
       <r>    6.3024    0.0000 </r>
       <r>    8.5608    0.0000 </r>
       <r>    8.5608    0.0000 </r>
       <r>   14.3233    0.0000 </r>
       <r>   14.3234    0.0000 </r>
       <r>   17.3085    0.0000 </r>
       <r>   17.3085    0.0000 </r>
       <r>   19.7383    0.0000 </r>
       <r>   19.7383    0.0000 </r>
      </set>
      <set comment="kpoint 41">
       <r>  -37.6161    1.0000 </r>
       <r>  -37.6161    1.0000 </r>
       <r>  -12.3390    1.0000 </r>
       <r>  -12.3390    1.0000 </r>
       <r>  -12.1340    1.0000 </r>
       <r>  -12.1340    1.0000 </r>
       <r>  -12.0349    1.0000 </r>
       <r>  -12.0349    1.0000 </r>
       <r>    5.3411    0.0000 </r>
       <r>    5.3412    0.0000 </r>
       <r>    9.8006    0.0000 </r>
       <r>    9.8006    0.0000 </r>
       <r>   13.9480    0.0000 </r>
       <r>   13.9481    0.0000 </r>
       <r>   18.0715    0.0000 </r>
       <r>   18.0715    0.0000 </r>
       <r>   20.9662    0.0000 </r>
       <r>   20.9662    0.0000 </r>
      </set>
      <set comment="kpoint 42">
       <r>  -37.6560    1.0000 </r>
       <r>  -37.6560    1.0000 </r>
       <r>  -12.3527    1.0000 </r>
       <r>  -12.3527    1.0000 </r>
       <r>  -12.2642    1.0000 </r>
       <r>  -12.2642    1.0000 </r>
       <r>  -12.1585    1.0000 </r>
       <r>  -12.1585    1.0000 </r>
       <r>    2.9496    0.0000 </r>
       <r>    2.9496    0.0000 </r>
       <r>   13.3422    0.0000 </r>
       <r>   13.3423    0.0000 </r>
       <r>   15.0497    0.0000 </r>
       <r>   15.0497    0.0000 </r>
       <r>   19.7852    0.0000 </r>
       <r>   19.7852    0.0000 </r>
       <r>   21.0377    0.0000 </r>
       <r>   21.0378    0.0000 </r>
      </set>
      <set comment="kpoint 43">
       <r>  -37.6642    1.0000 </r>
       <r>  -37.6642    1.0000 </r>
       <r>  -12.2558    1.0000 </r>
       <r>  -12.2558    1.0000 </r>
       <r>  -12.0766    1.0000 </r>
       <r>  -12.0766    1.0000 </r>
       <r>  -12.0249    1.0000 </r>
       <r>  -12.0249    1.0000 </r>
       <r>    1.9657    0.0000 </r>
       <r>    1.9657    0.0000 </r>
       <r>   15.8440    0.0000 </r>
       <r>   15.8440    0.0000 </r>
       <r>   17.9783    0.0000 </r>
       <r>   17.9783    0.0000 </r>
       <r>   17.9835    0.0000 </r>
       <r>   17.9835    0.0000 </r>
       <r>   18.1547    0.0000 </r>
       <r>   18.1548    0.0000 </r>
      </set>
      <set comment="kpoint 44">
       <r>  -37.6860    1.0000 </r>
       <r>  -37.6860    1.0000 </r>
       <r>  -12.4401    1.0000 </r>
       <r>  -12.4401    1.0000 </r>
       <r>  -12.1976    1.0000 </r>
       <r>  -12.1976    1.0000 </r>
       <r>  -12.1415    1.0000 </r>
       <r>  -12.1414    1.0000 </r>
       <r>    1.7178    0.0000 </r>
       <r>    1.7178    0.0000 </r>
       <r>   15.0934    0.0000 </r>
       <r>   15.0935    0.0000 </r>
       <r>   19.0930    0.0000 </r>
       <r>   19.0930    0.0000 </r>
       <r>   19.0945    0.0000 </r>
       <r>   19.0945    0.0000 </r>
       <r>   21.0051    0.0000 </r>
       <r>   21.0051    0.0000 </r>
      </set>
      <set comment="kpoint 45">
       <r>  -37.6560    1.0000 </r>
       <r>  -37.6560    1.0000 </r>
       <r>  -12.3527    1.0000 </r>
       <r>  -12.3526    1.0000 </r>
       <r>  -12.2642    1.0000 </r>
       <r>  -12.2642    1.0000 </r>
       <r>  -12.1586    1.0000 </r>
       <r>  -12.1586    1.0000 </r>
       <r>    2.9496    0.0000 </r>
       <r>    2.9496    0.0000 </r>
       <r>   13.3422    0.0000 </r>
       <r>   13.3422    0.0000 </r>
       <r>   15.0500    0.0000 </r>
       <r>   15.0500    0.0000 </r>
       <r>   19.7851    0.0000 </r>
       <r>   19.7852    0.0000 </r>
       <r>   21.0379    0.0000 </r>
       <r>   21.0379    0.0000 </r>
      </set>
      <set comment="kpoint 46">
       <r>  -37.6161    1.0000 </r>
       <r>  -37.6161    1.0000 </r>
       <r>  -12.3390    1.0000 </r>
       <r>  -12.3390    1.0000 </r>
       <r>  -12.1339    1.0000 </r>
       <r>  -12.1338    1.0000 </r>
       <r>  -12.0350    1.0000 </r>
       <r>  -12.0350    1.0000 </r>
       <r>    5.3411    0.0000 </r>
       <r>    5.3411    0.0000 </r>
       <r>    9.8006    0.0000 </r>
       <r>    9.8006    0.0000 </r>
       <r>   13.9483    0.0000 </r>
       <r>   13.9483    0.0000 </r>
       <r>   18.0714    0.0000 </r>
       <r>   18.0714    0.0000 </r>
       <r>   20.9655    0.0000 </r>
       <r>   20.9656    0.0000 </r>
      </set>
      <set comment="kpoint 47">
       <r>  -37.6191    1.0000 </r>
       <r>  -37.6191    1.0000 </r>
       <r>  -12.4171    1.0000 </r>
       <r>  -12.4171    1.0000 </r>
       <r>  -12.2459    1.0000 </r>
       <r>  -12.2459    1.0000 </r>
       <r>  -12.1930    1.0000 </r>
       <r>  -12.1930    1.0000 </r>
       <r>    6.3024    0.0000 </r>
       <r>    6.3024    0.0000 </r>
       <r>    8.5607    0.0000 </r>
       <r>    8.5607    0.0000 </r>
       <r>   14.3235    0.0000 </r>
       <r>   14.3236    0.0000 </r>
       <r>   17.3084    0.0000 </r>
       <r>   17.3085    0.0000 </r>
       <r>   19.7378    0.0000 </r>
       <r>   19.7378    0.0000 </r>
      </set>
      <set comment="kpoint 48">
       <r>  -37.6465    1.0000 </r>
       <r>  -37.6465    1.0000 </r>
       <r>  -12.4336    1.0000 </r>
       <r>  -12.4336    1.0000 </r>
       <r>  -12.2787    1.0000 </r>
       <r>  -12.2786    1.0000 </r>
       <r>  -12.2220    1.0000 </r>
       <r>  -12.2220    1.0000 </r>
       <r>    3.6124    0.0000 </r>
       <r>    3.6124    0.0000 </r>
       <r>   12.3510    0.0000 </r>
       <r>   12.3510    0.0000 </r>
       <r>   15.4381    0.0000 </r>
       <r>   15.4381    0.0000 </r>
       <r>   17.3646    0.0000 </r>
       <r>   17.3646    0.0000 </r>
       <r>   19.1118    0.0000 </r>
       <r>   19.1118    0.0000 </r>
      </set>
      <set comment="kpoint 49">
       <r>  -37.6465    1.0000 </r>
       <r>  -37.6465    1.0000 </r>
       <r>  -12.4336    1.0000 </r>
       <r>  -12.4336    1.0000 </r>
       <r>  -12.2787    1.0000 </r>
       <r>  -12.2787    1.0000 </r>
       <r>  -12.2219    1.0000 </r>
       <r>  -12.2219    1.0000 </r>
       <r>    3.6124    0.0000 </r>
       <r>    3.6124    0.0000 </r>
       <r>   12.3511    0.0000 </r>
       <r>   12.3511    0.0000 </r>
       <r>   15.4380    0.0000 </r>
       <r>   15.4380    0.0000 </r>
       <r>   17.3646    0.0000 </r>
       <r>   17.3646    0.0000 </r>
       <r>   19.1119    0.0000 </r>
       <r>   19.1120    0.0000 </r>
      </set>
      <set comment="kpoint 50">
       <r>  -37.6560    1.0000 </r>
       <r>  -37.6560    1.0000 </r>
       <r>  -12.3527    1.0000 </r>
       <r>  -12.3526    1.0000 </r>
       <r>  -12.2642    1.0000 </r>
       <r>  -12.2642    1.0000 </r>
       <r>  -12.1586    1.0000 </r>
       <r>  -12.1586    1.0000 </r>
       <r>    2.9496    0.0000 </r>
       <r>    2.9496    0.0000 </r>
       <r>   13.3422    0.0000 </r>
       <r>   13.3422    0.0000 </r>
       <r>   15.0500    0.0000 </r>
       <r>   15.0500    0.0000 </r>
       <r>   19.7852    0.0000 </r>
       <r>   19.7852    0.0000 </r>
       <r>   21.0379    0.0000 </r>
       <r>   21.0379    0.0000 </r>
      </set>
      <set comment="kpoint 51">
       <r>  -37.6465    1.0000 </r>
       <r>  -37.6465    1.0000 </r>
       <r>  -12.4336    1.0000 </r>
[...]
       <r>     5.8831     0.0000     0.0000 </r>
       <r>     6.1016     0.0000     0.0000 </r>
       <r>     6.3201     0.0000     0.0000 </r>
       <r>     6.5387     0.0000     0.0000 </r>
       <r>     6.7572     0.0000     0.0000 </r>
       <r>     6.9758     0.0000     0.0000 </r>
       <r>     7.1943     0.0000     0.0000 </r>
       <r>     7.4128     0.0000     0.0000 </r>
       <r>     7.6314     0.0000     0.0000 </r>
       <r>     7.8499     0.0000     0.0000 </r>
       <r>     8.0685     0.0000     0.0000 </r>
       <r>     8.2870     0.0000     0.0000 </r>
       <r>     8.5055     0.0000     0.0000 </r>
       <r>     8.7241     0.0000     0.0000 </r>
       <r>     8.9426     0.0000     0.0000 </r>
       <r>     9.1612     0.0000     0.0000 </r>
       <r>     9.3797     0.0000     0.0000 </r>
       <r>     9.5982     0.0000     0.0000 </r>
       <r>     9.8168     0.0000     0.0000 </r>
       <r>    10.0353     0.0000     0.0000 </r>
       <r>    10.2539     0.0000     0.0000 </r>
       <r>    10.4724     0.0000     0.0000 </r>
       <r>    10.6909     0.0000     0.0000 </r>
       <r>    10.9095     0.0000     0.0000 </r>
       <r>    11.1280     0.0000     0.0000 </r>
       <r>    11.3466     0.0000     0.0000 </r>
       <r>    11.5651     0.0000     0.0000 </r>
       <r>    11.7837     0.0000     0.0000 </r>
       <r>    12.0022     0.0000     0.0000 </r>
       <r>    12.2207     0.0000     0.0000 </r>
       <r>    12.4393     0.0000     0.0000 </r>
       <r>    12.6578     0.0000     0.0000 </r>
       <r>    12.8764     0.0000     0.0000 </r>
       <r>    13.0949     0.0000     0.0000 </r>
       <r>    13.3134     0.0000     0.0000 </r>
       <r>    13.5320     0.0000     0.0000 </r>
       <r>    13.7505     0.0000     0.0000 </r>
       <r>    13.9691     0.0000     0.0000 </r>
       <r>    14.1876     0.0000     0.0000 </r>
       <r>    14.4061     0.0000     0.0000 </r>
       <r>    14.6247     0.0000     0.0000 </r>
       <r>    14.8432     0.0000     0.0000 </r>
       <r>    15.0618     0.0000     0.0000 </r>
       <r>    15.2803     0.0000     0.0000 </r>
       <r>    15.4988     0.0000     0.0000 </r>
       <r>    15.7174     0.0000     0.0000 </r>
       <r>    15.9359     0.0000     0.0000 </r>
       <r>    16.1545     0.0000     0.0000 </r>
       <r>    16.3730     0.0000     0.0000 </r>
       <r>    16.5915     0.0000     0.0000 </r>
       <r>    16.8101     0.0000     0.0000 </r>
       <r>    17.0286     0.0000     0.0000 </r>
       <r>    17.2472     0.0000     0.0000 </r>
       <r>    17.4657     0.0000     0.0000 </r>
       <r>    17.6842     0.0000     0.0000 </r>
       <r>    17.9028     0.0000     0.0000 </r>
       <r>    18.1213     0.0000     0.0000 </r>
       <r>    18.3399     0.0000     0.0000 </r>
       <r>    18.5584     0.0000     0.0000 </r>
       <r>    18.7769     0.0000     0.0000 </r>
       <r>    18.9955     0.0000     0.0000 </r>
       <r>    19.2140     0.0000     0.0000 </r>
       <r>    19.4326     0.0000     0.0000 </r>
       <r>    19.6511     0.0000     0.0000 </r>
       <r>    19.8697     0.0000     0.0000 </r>
       <r>    20.0882     0.0000     0.0000 </r>
       <r>    20.3067     0.0000     0.0000 </r>
       <r>    20.5253     0.0000     0.0000 </r>
       <r>    20.7438     0.0000     0.0000 </r>
       <r>    20.9624     0.0000     0.0000 </r>
       <r>    21.1809     0.0000     0.0000 </r>
       <r>    21.3994     0.0000     0.0000 </r>
       <r>    21.6180     0.0000     0.0000 </r>
       <r>    21.8365     0.0000     0.0000 </r>
       <r>    22.0551     0.0000     0.0000 </r>
       <r>    22.2736     0.0000     0.0000 </r>
       <r>    22.4921     0.0000     0.0000 </r>
       <r>    22.7107     0.0000     0.0000 </r>
       <r>    22.9292     0.0000     0.0000 </r>
       <r>    23.1478     0.0000     0.0000 </r>
       <r>    23.3663     0.0000     0.0000 </r>
       <r>    23.5848     0.0000     0.0000 </r>
       <r>    23.8034     0.0000     0.0000 </r>
       <r>    24.0219     0.0000     0.0000 </r>
       <r>    24.2405     0.0000     0.0000 </r>
       <r>    24.4590     0.0000     0.0000 </r>
       <r>    24.6775     0.0000     0.0000 </r>
       <r>    24.8961     0.0000     0.0000 </r>
      </set>
      <set comment="spin 4">
       <r>   -40.6661     0.0000     0.0000 </r>
       <r>   -40.4475     0.0000     0.0000 </r>
       <r>   -40.2290     0.0000     0.0000 </r>
       <r>   -40.0105     0.0000     0.0000 </r>
       <r>   -39.7919     0.0000     0.0000 </r>
       <r>   -39.5734     0.0000     0.0000 </r>
       <r>   -39.3548     0.0000     0.0000 </r>
       <r>   -39.1363     0.0000     0.0000 </r>
       <r>   -38.9178     0.0000     0.0000 </r>
       <r>   -38.6992     0.0000     0.0000 </r>
       <r>   -38.4807     0.0000     0.0000 </r>
       <r>   -38.2621     0.0000     0.0000 </r>
       <r>   -38.0436     0.0000     0.0000 </r>
       <r>   -37.8251     0.0000     0.0000 </r>
       <r>   -37.6065     0.0000     0.0000 </r>
       <r>   -37.3880     0.0000     0.0000 </r>
       <r>   -37.1694     0.0000     0.0000 </r>
       <r>   -36.9509     0.0000     0.0000 </r>
       <r>   -36.7324     0.0000     0.0000 </r>
       <r>   -36.5138     0.0000     0.0000 </r>
       <r>   -36.2953     0.0000     0.0000 </r>
       <r>   -36.0767     0.0000     0.0000 </r>
       <r>   -35.8582     0.0000     0.0000 </r>
       <r>   -35.6397     0.0000     0.0000 </r>
       <r>   -35.4211     0.0000     0.0000 </r>
       <r>   -35.2026     0.0000     0.0000 </r>
       <r>   -34.9840     0.0000     0.0000 </r>
       <r>   -34.7655     0.0000     0.0000 </r>
       <r>   -34.5469     0.0000     0.0000 </r>
       <r>   -34.3284     0.0000     0.0000 </r>
       <r>   -34.1099     0.0000     0.0000 </r>
       <r>   -33.8913     0.0000     0.0000 </r>
       <r>   -33.6728     0.0000     0.0000 </r>
       <r>   -33.4542     0.0000     0.0000 </r>
       <r>   -33.2357     0.0000     0.0000 </r>
       <r>   -33.0172     0.0000     0.0000 </r>
       <r>   -32.7986     0.0000     0.0000 </r>
       <r>   -32.5801     0.0000     0.0000 </r>
       <r>   -32.3615     0.0000     0.0000 </r>
       <r>   -32.1430     0.0000     0.0000 </r>
       <r>   -31.9245     0.0000     0.0000 </r>
       <r>   -31.7059     0.0000     0.0000 </r>
       <r>   -31.4874     0.0000     0.0000 </r>
       <r>   -31.2688     0.0000     0.0000 </r>
       <r>   -31.0503     0.0000     0.0000 </r>
       <r>   -30.8318     0.0000     0.0000 </r>
       <r>   -30.6132     0.0000     0.0000 </r>
       <r>   -30.3947     0.0000     0.0000 </r>
       <r>   -30.1761     0.0000     0.0000 </r>
       <r>   -29.9576     0.0000     0.0000 </r>
       <r>   -29.7391     0.0000     0.0000 </r>
       <r>   -29.5205     0.0000     0.0000 </r>
       <r>   -29.3020     0.0000     0.0000 </r>
       <r>   -29.0834     0.0000     0.0000 </r>
       <r>   -28.8649     0.0000     0.0000 </r>
       <r>   -28.6464     0.0000     0.0000 </r>
       <r>   -28.4278     0.0000     0.0000 </r>
       <r>   -28.2093     0.0000     0.0000 </r>
       <r>   -27.9907     0.0000     0.0000 </r>
       <r>   -27.7722     0.0000     0.0000 </r>
       <r>   -27.5537     0.0000     0.0000 </r>
       <r>   -27.3351     0.0000     0.0000 </r>
       <r>   -27.1166     0.0000     0.0000 </r>
       <r>   -26.8980     0.0000     0.0000 </r>
       <r>   -26.6795     0.0000     0.0000 </r>
       <r>   -26.4609     0.0000     0.0000 </r>
       <r>   -26.2424     0.0000     0.0000 </r>
       <r>   -26.0239     0.0000     0.0000 </r>
       <r>   -25.8053     0.0000     0.0000 </r>
       <r>   -25.5868     0.0000     0.0000 </r>
       <r>   -25.3682     0.0000     0.0000 </r>
       <r>   -25.1497     0.0000     0.0000 </r>
       <r>   -24.9312     0.0000     0.0000 </r>
       <r>   -24.7126     0.0000     0.0000 </r>
       <r>   -24.4941     0.0000     0.0000 </r>
       <r>   -24.2755     0.0000     0.0000 </r>
       <r>   -24.0570     0.0000     0.0000 </r>
       <r>   -23.8385     0.0000     0.0000 </r>
       <r>   -23.6199     0.0000     0.0000 </r>
       <r>   -23.4014     0.0000     0.0000 </r>
       <r>   -23.1828     0.0000     0.0000 </r>
       <r>   -22.9643     0.0000     0.0000 </r>
       <r>   -22.7458     0.0000     0.0000 </r>
       <r>   -22.5272     0.0000     0.0000 </r>
       <r>   -22.3087     0.0000     0.0000 </r>
       <r>   -22.0901     0.0000     0.0000 </r>
       <r>   -21.8716     0.0000     0.0000 </r>
       <r>   -21.6531     0.0000     0.0000 </r>
       <r>   -21.4345     0.0000     0.0000 </r>
       <r>   -21.2160     0.0000     0.0000 </r>
       <r>   -20.9974     0.0000     0.0000 </r>
       <r>   -20.7789     0.0000     0.0000 </r>
       <r>   -20.5604     0.0000     0.0000 </r>
       <r>   -20.3418     0.0000     0.0000 </r>
       <r>   -20.1233     0.0000     0.0000 </r>
       <r>   -19.9047     0.0000     0.0000 </r>
       <r>   -19.6862     0.0000     0.0000 </r>
       <r>   -19.4677     0.0000     0.0000 </r>
       <r>   -19.2491     0.0000     0.0000 </r>
       <r>   -19.0306     0.0000     0.0000 </r>
       <r>   -18.8120     0.0000     0.0000 </r>
       <r>   -18.5935     0.0000     0.0000 </r>
       <r>   -18.3749     0.0000     0.0000 </r>
       <r>   -18.1564     0.0000     0.0000 </r>
       <r>   -17.9379     0.0000     0.0000 </r>
       <r>   -17.7193     0.0000     0.0000 </r>
       <r>   -17.5008     0.0000     0.0000 </r>
       <r>   -17.2822     0.0000     0.0000 </r>
       <r>   -17.0637     0.0000     0.0000 </r>
       <r>   -16.8452     0.0000     0.0000 </r>
       <r>   -16.6266     0.0000     0.0000 </r>
       <r>   -16.4081     0.0000     0.0000 </r>
       <r>   -16.1895     0.0000     0.0000 </r>
       <r>   -15.9710     0.0000     0.0000 </r>
       <r>   -15.7525     0.0000     0.0000 </r>
       <r>   -15.5339     0.0000     0.0000 </r>
       <r>   -15.3154     0.0000     0.0000 </r>
       <r>   -15.0968     0.0000     0.0000 </r>
       <r>   -14.8783     0.0000     0.0000 </r>
       <r>   -14.6598     0.0000     0.0000 </r>
       <r>   -14.4412     0.0000     0.0000 </r>
       <r>   -14.2227     0.0000     0.0000 </r>
       <r>   -14.0041     0.0000     0.0000 </r>
       <r>   -13.7856     0.0000     0.0000 </r>
       <r>   -13.5671     0.0000     0.0000 </r>
       <r>   -13.3485     0.0000     0.0000 </r>
       <r>   -13.1300     0.0000     0.0000 </r>
       <r>   -12.9114     0.0000     0.0000 </r>
       <r>   -12.6929     0.0000     0.0000 </r>
       <r>   -12.4744     0.0000     0.0000 </r>
       <r>   -12.2558     0.0000     0.0000 </r>
       <r>   -12.0373     0.0000     0.0000 </r>
       <r>   -11.8187     0.0000     0.0000 </r>
       <r>   -11.6002     0.0000     0.0000 </r>
       <r>   -11.3816     0.0000     0.0000 </r>
       <r>   -11.1631     0.0000     0.0000 </r>
       <r>   -10.9446     0.0000     0.0000 </r>
       <r>   -10.7260     0.0000     0.0000 </r>
       <r>   -10.5075     0.0000     0.0000 </r>
       <r>   -10.2889     0.0000     0.0000 </r>
       <r>   -10.0704     0.0000     0.0000 </r>
       <r>    -9.8519     0.0000     0.0000 </r>
       <r>    -9.6333     0.0000     0.0000 </r>
       <r>    -9.4148     0.0000     0.0000 </r>
       <r>    -9.1962     0.0000     0.0000 </r>
       <r>    -8.9777     0.0000     0.0000 </r>
       <r>    -8.7592     0.0000     0.0000 </r>
       <r>    -8.5406     0.0000     0.0000 </r>
       <r>    -8.3221     0.0000     0.0000 </r>
       <r>    -8.1035     0.0000     0.0000 </r>
       <r>    -7.8850     0.0000     0.0000 </r>
       <r>    -7.6665     0.0000     0.0000 </r>
       <r>    -7.4479     0.0000     0.0000 </r>
       <r>    -7.2294     0.0000     0.0000 </r>
       <r>    -7.0108     0.0000     0.0000 </r>
       <r>    -6.7923     0.0000     0.0000 </r>
       <r>    -6.5738     0.0000     0.0000 </r>
       <r>    -6.3552     0.0000     0.0000 </r>
       <r>    -6.1367     0.0000     0.0000 </r>
       <r>    -5.9181     0.0000     0.0000 </r>
       <r>    -5.6996     0.0000     0.0000 </r>
       <r>    -5.4811     0.0000     0.0000 </r>
       <r>    -5.2625     0.0000     0.0000 </r>
       <r>    -5.0440     0.0000     0.0000 </r>
       <r>    -4.8254     0.0000     0.0000 </r>
       <r>    -4.6069     0.0000     0.0000 </r>
       <r>    -4.3884     0.0000     0.0000 </r>
       <r>    -4.1698     0.0000     0.0000 </r>
       <r>    -3.9513     0.0000     0.0000 </r>
       <r>    -3.7327     0.0000     0.0000 </r>
       <r>    -3.5142     0.0000     0.0000 </r>
       <r>    -3.2956     0.0000     0.0000 </r>
       <r>    -3.0771     0.0000     0.0000 </r>
       <r>    -2.8586     0.0000     0.0000 </r>
       <r>    -2.6400     0.0000     0.0000 </r>
       <r>    -2.4215     0.0000     0.0000 </r>
       <r>    -2.2029     0.0000     0.0000 </r>
       <r>    -1.9844     0.0000     0.0000 </r>
       <r>    -1.7659     0.0000     0.0000 </r>
       <r>    -1.5473     0.0000     0.0000 </r>
       <r>    -1.3288     0.0000     0.0000 </r>
       <r>    -1.1102     0.0000     0.0000 </r>
       <r>    -0.8917     0.0000     0.0000 </r>
       <r>    -0.6732     0.0000     0.0000 </r>
       <r>    -0.4546     0.0000     0.0000 </r>
       <r>    -0.2361     0.0000     0.0000 </r>
       <r>    -0.0175     0.0000     0.0000 </r>
       <r>     0.2010     0.0000     0.0000 </r>
       <r>     0.4195     0.0000     0.0000 </r>
       <r>     0.6381     0.0000     0.0000 </r>
       <r>     0.8566     0.0000     0.0000 </r>
       <r>     1.0752     0.0000     0.0000 </r>
       <r>     1.2937     0.0000     0.0000 </r>
       <r>     1.5122     0.0000     0.0000 </r>
       <r>     1.7308     0.0000     0.0000 </r>
       <r>     1.9493     0.0000     0.0000 </r>
       <r>     2.1679     0.0000     0.0000 </r>
       <r>     2.3864     0.0000     0.0000 </r>
       <r>     2.6049     0.0000     0.0000 </r>
       <r>     2.8235     0.0000     0.0000 </r>
       <r>     3.0420     0.0000     0.0000 </r>
       <r>     3.2606     0.0000     0.0000 </r>
       <r>     3.4791     0.0000     0.0000 </r>
       <r>     3.6976     0.0000     0.0000 </r>
       <r>     3.9162     0.0000     0.0000 </r>
       <r>     4.1347     0.0000     0.0000 </r>
       <r>     4.3533     0.0000     0.0000 </r>
       <r>     4.5718     0.0000     0.0000 </r>
       <r>     4.7904     0.0000     0.0000 </r>
       <r>     5.0089     0.0000     0.0000 </r>
       <r>     5.2274     0.0000     0.0000 </r>
       <r>     5.4460     0.0000     0.0000 </r>
       <r>     5.6645     0.0000     0.0000 </r>
       <r>     5.8831     0.0000     0.0000 </r>
       <r>     6.1016     0.0000     0.0000 </r>
       <r>     6.3201     0.0000     0.0000 </r>
       <r>     6.5387     0.0000     0.0000 </r>
       <r>     6.7572     0.0000     0.0000 </r>
       <r>     6.9758     0.0000     0.0000 </r>
       <r>     7.1943     0.0000     0.0000 </r>
       <r>     7.4128     0.0000     0.0000 </r>
       <r>     7.6314     0.0000     0.0000 </r>
       <r>     7.8499     0.0000     0.0000 </r>
       <r>     8.0685     0.0000     0.0000 </r>
       <r>     8.2870     0.0000     0.0000 </r>
       <r>     8.5055     0.0000     0.0000 </r>
       <r>     8.7241     0.0000     0.0000 </r>
       <r>     8.9426     0.0000     0.0000 </r>
       <r>     9.1612     0.0000     0.0000 </r>
       <r>     9.3797     0.0000     0.0000 </r>
       <r>     9.5982     0.0000     0.0000 </r>
       <r>     9.8168     0.0000     0.0000 </r>
       <r>    10.0353     0.0000     0.0000 </r>
       <r>    10.2539     0.0000     0.0000 </r>
       <r>    10.4724     0.0000     0.0000 </r>
       <r>    10.6909     0.0000     0.0000 </r>
       <r>    10.9095     0.0000     0.0000 </r>
       <r>    11.1280     0.0000     0.0000 </r>
       <r>    11.3466     0.0000     0.0000 </r>
       <r>    11.5651     0.0000     0.0000 </r>
       <r>    11.7837     0.0000     0.0000 </r>
       <r>    12.0022     0.0000     0.0000 </r>
       <r>    12.2207     0.0000     0.0000 </r>
       <r>    12.4393     0.0000     0.0000 </r>
       <r>    12.6578     0.0000     0.0000 </r>
       <r>    12.8764     0.0000     0.0000 </r>
       <r>    13.0949     0.0000     0.0000 </r>
       <r>    13.3134     0.0000     0.0000 </r>
       <r>    13.5320     0.0000     0.0000 </r>
       <r>    13.7505     0.0000     0.0000 </r>
       <r>    13.9691     0.0000     0.0000 </r>
       <r>    14.1876     0.0000     0.0000 </r>
       <r>    14.4061     0.0000     0.0000 </r>
       <r>    14.6247     0.0000     0.0000 </r>
       <r>    14.8432     0.0000     0.0000 </r>
       <r>    15.0618     0.0000     0.0000 </r>
       <r>    15.2803     0.0000     0.0000 </r>
       <r>    15.4988     0.0000     0.0000 </r>
       <r>    15.7174     0.0000     0.0000 </r>
       <r>    15.9359     0.0000     0.0000 </r>
       <r>    16.1545     0.0000     0.0000 </r>
       <r>    16.3730     0.0000     0.0000 </r>
       <r>    16.5915     0.0000     0.0000 </r>
       <r>    16.8101     0.0000     0.0000 </r>
       <r>    17.0286     0.0000     0.0000 </r>
       <r>    17.2472     0.0000     0.0000 </r>
       <r>    17.4657     0.0000     0.0000 </r>
       <r>    17.6842     0.0000     0.0000 </r>
       <r>    17.9028     0.0000     0.0000 </r>
       <r>    18.1213     0.0000     0.0000 </r>
       <r>    18.3399     0.0000     0.0000 </r>
       <r>    18.5584     0.0000     0.0000 </r>
       <r>    18.7769     0.0000     0.0000 </r>
       <r>    18.9955     0.0000     0.0000 </r>
       <r>    19.2140     0.0000     0.0000 </r>
       <r>    19.4326     0.0000     0.0000 </r>
       <r>    19.6511     0.0000     0.0000 </r>
       <r>    19.8697     0.0000     0.0000 </r>
       <r>    20.0882     0.0000     0.0000 </r>
       <r>    20.3067     0.0000     0.0000 </r>
       <r>    20.5253     0.0000     0.0000 </r>
       <r>    20.7438     0.0000     0.0000 </r>
       <r>    20.9624     0.0000     0.0000 </r>
       <r>    21.1809     0.0000     0.0000 </r>
       <r>    21.3994     0.0000     0.0000 </r>
       <r>    21.6180     0.0000     0.0000 </r>
       <r>    21.8365     0.0000     0.0000 </r>
       <r>    22.0551     0.0000     0.0000 </r>
       <r>    22.2736     0.0000     0.0000 </r>
       <r>    22.4921     0.0000     0.0000 </r>
       <r>    22.7107     0.0000     0.0000 </r>
       <r>    22.9292     0.0000     0.0000 </r>
       <r>    23.1478     0.0000     0.0000 </r>
       <r>    23.3663     0.0000     0.0000 </r>
       <r>    23.5848     0.0000     0.0000 </r>
       <r>    23.8034     0.0000     0.0000 </r>
       <r>    24.0219     0.0000     0.0000 </r>
       <r>    24.2405     0.0000     0.0000 </r>
       <r>    24.4590     0.0000     0.0000 </r>
       <r>    24.6775     0.0000     0.0000 </r>
       <r>    24.8961     0.0000     0.0000 </r>
      </set>
     </set>
    </array>
   </total>
  </dos>
 </calculation>
 <structure name="finalpos" >
  <crystal>
   <varray name="basis" >
    <v>       3.15663441       0.00000000       0.00000000 </v>
    <v>       1.57831721       2.73372559       0.00000000 </v>
    <v>       1.57831721       0.91124186       2.57738121 </v>
   </varray>
   <i name="volume">     22.24118194 </i>
   <varray name="rec_basis" >
    <v>       0.31679310      -0.18290058      -0.12933024 </v>
    <v>       0.00000000       0.36580116      -0.12933024 </v>
    <v>       0.00000000       0.00000000       0.38799072 </v>
   </varray>
  </crystal>
  <varray name="positions" >
   <v>       0.00000000       0.00000000       0.00000000 </v>
  </varray>
  <varray name="velocities" >
   <v>       0.00000000       0.00000000       0.00000000 </v>
  </varray>
 </structure>
</modeling>
