Og_FCC                                  
           1
     3.156634    0.000000    0.000000
     1.578317    2.733726    0.000000
     1.578317    0.911242    2.577381
   Ne
   1
Direct configuration=     1
   0.00000000  0.00000000  0.00000000
