   1   1   0   0
  0.6083477E+02  0.4414576E-09  0.4414576E-09  0.4414576E-09  0.1000000E-15
  1.000000000000000E-004
  CAR 
 Og_FCC                                  
     77.64203015    -56.74414303  301     -2.87768528      1.00000000
    -56.744  0.0000E+00  0.0000E+00
    -56.296  0.0000E+00  0.0000E+00
    -55.848  0.0000E+00  0.0000E+00
    -55.400  0.0000E+00  0.0000E+00
    -54.952  0.0000E+00  0.0000E+00
    -54.504  0.0000E+00  0.0000E+00
    -54.056  0.0000E+00  0.0000E+00
    -53.608  0.0000E+00  0.0000E+00
    -53.161  0.0000E+00  0.0000E+00
    -52.713  0.0000E+00  0.0000E+00
    -52.265  0.0000E+00  0.0000E+00
    -51.817  0.0000E+00  0.0000E+00
    -51.369  0.0000E+00  0.0000E+00
    -50.921  0.0000E+00  0.0000E+00
    -50.473  0.0000E+00  0.4000E+01
    -50.025  0.0000E+00  0.4000E+01
    -49.577  0.0000E+00  0.4000E+01
    -49.129  0.0000E+00  0.4000E+01
    -48.681  0.0000E+00  0.4000E+01
    -48.233  0.0000E+00  0.4000E+01
    -47.785  0.0000E+00  0.4000E+01
    -47.337  0.0000E+00  0.4000E+01
    -46.889  0.0000E+00  0.4000E+01
    -46.441  0.0000E+00  0.4000E+01
    -45.993  0.0000E+00  0.4000E+01
    -45.545  0.0000E+00  0.1000E+02
    -45.097  0.0000E+00  0.1000E+02
    -44.649  0.0000E+00  0.1000E+02
    -44.201  0.0000E+00  0.1000E+02
    -43.753  0.0000E+00  0.1000E+02
    -43.306  0.0000E+00  0.1000E+02
    -42.858  0.0000E+00  0.1000E+02
    -42.410  0.0000E+00  0.1000E+02
    -41.962  0.0000E+00  0.1000E+02
    -41.514  0.0000E+00  0.1000E+02
    -41.066  0.0000E+00  0.1000E+02
    -40.618  0.0000E+00  0.1000E+02
    -40.170  0.0000E+00  0.1000E+02
    -39.722  0.0000E+00  0.1000E+02
    -39.274  0.0000E+00  0.1000E+02
    -38.826  0.0000E+00  0.1000E+02
    -38.378  0.0000E+00  0.1000E+02
    -37.930  0.0000E+00  0.1000E+02
    -37.482  0.0000E+00  0.1000E+02
    -37.034  0.0000E+00  0.1000E+02
    -36.586  0.0000E+00  0.1000E+02
    -36.138  0.0000E+00  0.1000E+02
    -35.690  0.0000E+00  0.1000E+02
    -35.242  0.0000E+00  0.1000E+02
    -34.794  0.0000E+00  0.1000E+02
    -34.346  0.0000E+00  0.1000E+02
    -33.898  0.0000E+00  0.1000E+02
    -33.451  0.0000E+00  0.1000E+02
    -33.003  0.0000E+00  0.1000E+02
    -32.555  0.0000E+00  0.1000E+02
    -32.107  0.0000E+00  0.1000E+02
    -31.659  0.0000E+00  0.1000E+02
    -31.211  0.0000E+00  0.1000E+02
    -30.763  0.0000E+00  0.1000E+02
    -30.315  0.0000E+00  0.1000E+02
    -29.867  0.0000E+00  0.1000E+02
    -29.419  0.0000E+00  0.1000E+02
    -28.971  0.0000E+00  0.1000E+02
    -28.523  0.0000E+00  0.1000E+02
    -28.075  0.0000E+00  0.1000E+02
    -27.627  0.0000E+00  0.1000E+02
    -27.179  0.0000E+00  0.1000E+02
    -26.731  0.0000E+00  0.1000E+02
    -26.283  0.0000E+00  0.1000E+02
    -25.835  0.0000E+00  0.1000E+02
    -25.387  0.0000E+00  0.1000E+02
    -24.939  0.0000E+00  0.1000E+02
    -24.491  0.0000E+00  0.1000E+02
    -24.044  0.0000E+00  0.1000E+02
    -23.596  0.0000E+00  0.1000E+02
    -23.148  0.0000E+00  0.1000E+02
    -22.700  0.0000E+00  0.1000E+02
    -22.252  0.0000E+00  0.1000E+02
    -21.804  0.0000E+00  0.1000E+02
    -21.356  0.0000E+00  0.1000E+02
    -20.908  0.0000E+00  0.1000E+02
    -20.460  0.0000E+00  0.1000E+02
    -20.012  0.0000E+00  0.1000E+02
    -19.564  0.0000E+00  0.1200E+02
    -19.116  0.0000E+00  0.1200E+02
    -18.668  0.0000E+00  0.1200E+02
    -18.220  0.0000E+00  0.1200E+02
    -17.772  0.0000E+00  0.1200E+02
    -17.324  0.0000E+00  0.1200E+02
    -16.876  0.0000E+00  0.1200E+02
    -16.428  0.0000E+00  0.1200E+02
    -15.980  0.0000E+00  0.1200E+02
    -15.532  0.0000E+00  0.1200E+02
    -15.084  0.0000E+00  0.1200E+02
    -14.636  0.0000E+00  0.1200E+02
    -14.189  0.0000E+00  0.1200E+02
    -13.741  0.0000E+00  0.1200E+02
    -13.293  0.0000E+00  0.1200E+02
    -12.845  0.0000E+00  0.1200E+02
    -12.397  0.0000E+00  0.1200E+02
    -11.949  0.0000E+00  0.1200E+02
    -11.501  0.0000E+00  0.1200E+02
    -11.053  0.0000E+00  0.1200E+02
    -10.605  0.0000E+00  0.1200E+02
    -10.157  0.0000E+00  0.1200E+02
     -9.709  0.0000E+00  0.1200E+02
     -9.261  0.0000E+00  0.1200E+02
     -8.813  0.0000E+00  0.1200E+02
     -8.365  0.0000E+00  0.1200E+02
     -7.917  0.1562E+00  0.1207E+02
     -7.469  0.2603E-01  0.1370E+02
     -7.021  0.0000E+00  0.1399E+02
     -6.573  0.0000E+00  0.1400E+02
     -6.125  0.0000E+00  0.1400E+02
     -5.677  0.0000E+00  0.1400E+02
     -5.229  0.0000E+00  0.1400E+02
     -4.781  0.0000E+00  0.1562E+02
     -4.334  0.1562E+00  0.1619E+02
     -3.886  0.0000E+00  0.1707E+02
     -3.438  0.1562E+00  0.1786E+02
     -2.990  0.0000E+00  0.1800E+02
     -2.542  0.0000E+00  0.1800E+02
     -2.094  0.0000E+00  0.1800E+02
     -1.646  0.0000E+00  0.1800E+02
     -1.198  0.0000E+00  0.1800E+02
     -0.750  0.0000E+00  0.1800E+02
     -0.302  0.0000E+00  0.1800E+02
      0.146  0.0000E+00  0.1800E+02
      0.594  0.0000E+00  0.1800E+02
      1.042  0.0000E+00  0.1800E+02
      1.490  0.0000E+00  0.1800E+02
      1.938  0.0000E+00  0.1800E+02
      2.386  0.0000E+00  0.1800E+02
      2.834  0.0000E+00  0.1800E+02
      3.282  0.0000E+00  0.1800E+02
      3.730  0.0000E+00  0.1801E+02
      4.178  0.0000E+00  0.1801E+02
      4.626  0.0000E+00  0.1805E+02
      5.073  0.0000E+00  0.1809E+02
      5.521  0.0000E+00  0.1824E+02
      5.969  0.6190E-14  0.1853E+02
      6.417  0.0000E+00  0.1937E+02
      6.865  0.1562E+00  0.1976E+02
      7.313  0.0000E+00  0.2042E+02
      7.761  0.0000E+00  0.2091E+02
      8.209  0.0000E+00  0.2175E+02
      8.657  0.0000E+00  0.2204E+02
      9.105  0.0000E+00  0.2294E+02
      9.553  0.1041E+00  0.2391E+02
     10.001  0.0000E+00  0.2460E+02
     10.449  0.0000E+00  0.2530E+02
     10.897  0.0000E+00  0.2569E+02
     11.345  0.0000E+00  0.2638E+02
     11.793  0.0000E+00  0.2665E+02
     12.241  0.0000E+00  0.2756E+02
     12.689  0.4091E-01  0.2819E+02
     13.137  0.0000E+00  0.2902E+02
     13.585  0.0000E+00  0.3010E+02
     14.033  0.0000E+00  0.3043E+02
     14.481  0.1039E-01  0.3122E+02
     14.928  0.0000E+00  0.3178E+02
     15.376  0.6280E-01  0.3290E+02
     15.824  0.0000E+00  0.3508E+02
     16.272  0.3103E+00  0.3711E+02
     16.720  0.3120E+00  0.3895E+02
     17.168  0.0000E+00  0.4136E+02
     17.616  0.1578E+00  0.4390E+02
     18.064  0.0000E+00  0.4466E+02
     18.512  0.0000E+00  0.4546E+02
     18.960  0.2603E-01  0.4619E+02
     19.408  0.0000E+00  0.4664E+02
     19.856  0.0000E+00  0.4745E+02
     20.304  0.0000E+00  0.4850E+02
     20.752  0.0000E+00  0.4953E+02
     21.200  0.3662E-01  0.5095E+02
     21.648  0.0000E+00  0.5241E+02
     22.096  0.1562E+00  0.5357E+02
     22.544  0.0000E+00  0.5475E+02
     22.992  0.0000E+00  0.5640E+02
     23.440  0.1656E-01  0.5705E+02
     23.888  0.0000E+00  0.5773E+02
     24.336  0.0000E+00  0.5852E+02
     24.783  0.0000E+00  0.5978E+02
     25.231  0.0000E+00  0.6061E+02
     25.679  0.1559E-01  0.6113E+02
     26.127  0.0000E+00  0.6212E+02
     26.575  0.0000E+00  0.6353E+02
     27.023  0.1562E+00  0.6469E+02
     27.471  0.6814E-01  0.6566E+02
     27.919  0.0000E+00  0.6699E+02
     28.367  0.3142E-01  0.6906E+02
     28.815  0.3124E+00  0.6995E+02
     29.263  0.0000E+00  0.7117E+02
     29.711  0.0000E+00  0.7224E+02
     30.159  0.0000E+00  0.7270E+02
     30.607  0.6248E+00  0.7364E+02
     31.055  0.2764E-01  0.7439E+02
     31.503  0.0000E+00  0.7663E+02
     31.951  0.1468E-01  0.7751E+02
     32.399  0.3124E+00  0.7923E+02
     32.847  0.0000E+00  0.8022E+02
     33.295  0.0000E+00  0.8166E+02
     33.743  0.0000E+00  0.8295E+02
     34.191  0.0000E+00  0.8394E+02
     34.638  0.3124E+00  0.8446E+02
     35.086  0.0000E+00  0.8633E+02
     35.534  0.3124E+00  0.8721E+02
     35.982  0.0000E+00  0.8832E+02
     36.430  0.0000E+00  0.8934E+02
     36.878  0.0000E+00  0.9053E+02
     37.326  0.0000E+00  0.9146E+02
     37.774  0.0000E+00  0.9285E+02
     38.222  0.0000E+00  0.9415E+02
     38.670  0.0000E+00  0.9599E+02
     39.118  0.9427E-10  0.9670E+02
     39.566  0.0000E+00  0.9781E+02
     40.014  0.1076E+00  0.9882E+02
     40.462  0.0000E+00  0.1001E+03
     40.910  0.0000E+00  0.1018E+03
     41.358  0.0000E+00  0.1033E+03
     41.806  0.0000E+00  0.1044E+03
     42.254  0.0000E+00  0.1055E+03
     42.702  0.0000E+00  0.1069E+03
     43.150  0.0000E+00  0.1081E+03
     43.598  0.1918E+00  0.1102E+03
     44.045  0.0000E+00  0.1116E+03
     44.493  0.8814E-11  0.1128E+03
     44.941  0.0000E+00  0.1142E+03
     45.389  0.0000E+00  0.1150E+03
     45.837  0.0000E+00  0.1167E+03
     46.285  0.0000E+00  0.1182E+03
     46.733  0.3124E+00  0.1190E+03
     47.181  0.0000E+00  0.1199E+03
     47.629  0.0000E+00  0.1214E+03
     48.077  0.0000E+00  0.1230E+03
     48.525  0.3083E+00  0.1243E+03
     48.973  0.0000E+00  0.1259E+03
     49.421  0.7810E-01  0.1272E+03
     49.869  0.7810E-01  0.1285E+03
     50.317  0.0000E+00  0.1304E+03
     50.765  0.0000E+00  0.1311E+03
     51.213  0.0000E+00  0.1331E+03
     51.661  0.1041E+00  0.1345E+03
     52.109  0.0000E+00  0.1362E+03
     52.557  0.0000E+00  0.1375E+03
     53.005  0.0000E+00  0.1385E+03
     53.453  0.2512E-02  0.1394E+03
     53.900  0.6302E-03  0.1410E+03
     54.348  0.0000E+00  0.1426E+03
     54.796  0.0000E+00  0.1436E+03
     55.244  0.0000E+00  0.1453E+03
     55.692  0.0000E+00  0.1470E+03
     56.140  0.0000E+00  0.1481E+03
     56.588  0.0000E+00  0.1495E+03
     57.036  0.0000E+00  0.1510E+03
     57.484  0.0000E+00  0.1526E+03
     57.932  0.3049E+00  0.1542E+03
     58.380  0.1313E-10  0.1560E+03
     58.828  0.0000E+00  0.1570E+03
     59.276  0.0000E+00  0.1590E+03
     59.724  0.2819E-08  0.1603E+03
     60.172  0.0000E+00  0.1619E+03
     60.620  0.5929E-05  0.1632E+03
     61.068  0.0000E+00  0.1652E+03
     61.516  0.2920E+00  0.1669E+03
     61.964  0.1307E-01  0.1689E+03
     62.412  0.4009E-06  0.1706E+03
     62.860  0.0000E+00  0.1718E+03
     63.308  0.0000E+00  0.1734E+03
     63.755  0.3031E+00  0.1741E+03
     64.203  0.0000E+00  0.1751E+03
     64.651  0.1515E+00  0.1771E+03
     65.099  0.3295E-15  0.1785E+03
     65.547  0.0000E+00  0.1808E+03
     65.995  0.1562E+00  0.1821E+03
     66.443  0.0000E+00  0.1840E+03
     66.891  0.0000E+00  0.1848E+03
     67.339  0.0000E+00  0.1866E+03
     67.787  0.0000E+00  0.1877E+03
     68.235  0.0000E+00  0.1903E+03
     68.683  0.0000E+00  0.1916E+03
     69.131  0.2083E+00  0.1928E+03
     69.579  0.0000E+00  0.1937E+03
     70.027  0.9421E-09  0.1944E+03
     70.475  0.0000E+00  0.1954E+03
     70.923  0.0000E+00  0.1955E+03
     71.371  0.0000E+00  0.1960E+03
     71.819  0.0000E+00  0.1960E+03
     72.267  0.0000E+00  0.1960E+03
     72.715  0.0000E+00  0.1960E+03
     73.162  0.0000E+00  0.1960E+03
     73.610  0.0000E+00  0.1960E+03
     74.058  0.0000E+00  0.1960E+03
     74.506  0.0000E+00  0.1960E+03
     74.954  0.0000E+00  0.1960E+03
     75.402  0.0000E+00  0.1960E+03
     75.850  0.0000E+00  0.1960E+03
     76.298  0.0000E+00  0.1960E+03
     76.746  0.0000E+00  0.1960E+03
     77.194  0.0000E+00  0.1960E+03
     77.642  0.0000E+00  0.1960E+03
