    1    1  999    1
  0.3645069E+02  0.3721691E-09  0.3721691E-09  0.3721691E-09  0.1000000E-15
  1.000000000000000E-004
  CAR 
 Cn_FCC                                  
      8     56      8
 
  0.0000000E+00  0.0000000E+00  0.0000000E+00  0.7513148E-03
    1      -21.050139   1.000000
    2       -5.582373   0.643214
    3       -5.582370   0.643194
    4       -5.582370   0.643193
    5        3.953109   0.000000
    6       11.249186   0.000000
    7       11.249187   0.000000
    8       11.249187   0.000000
 
  0.9090909E-01 -0.5941673E-17 -0.6938894E-17  0.6010518E-02
    1      -21.033970   1.000000
    2       -5.703710   1.032293
    3       -5.594487   0.736670
    4       -5.594485   0.736654
    5        4.186389   0.000000
    6       10.894129   0.000000
    7       11.346647   0.000000
    8       11.346648   0.000000
 
  0.1818182E+00 -0.1188335E-16 -0.1387779E-16  0.6010518E-02
    1      -20.990180   1.000000
    2       -6.011994   1.000000
    3       -5.626650   0.926542
    4       -5.626648   0.926532
    5        4.811248   0.000000
    6       10.191015   0.000000
    7       11.488418   0.000000
    8       11.488419   0.000000
 
  0.2727273E+00 -0.5251949E-16 -0.4163336E-16  0.6010518E-02
    1      -20.931873   1.000000
    2       -6.384918   1.000000
    3       -5.668098   1.027904
    4       -5.668096   1.027902
    5        5.633593   0.000000
    6        9.559439   0.000000
    7       11.339706   0.000000
    8       11.339707   0.000000
 
  0.3636364E+00 -0.2376669E-16 -0.2775558E-16  0.6010518E-02
    1      -20.877293   1.000000
    2       -6.703480   1.000000
    3       -5.705526   1.031641
    4       -5.705524   1.031642
    5        6.381732   0.000000
    6        9.179369   0.000000
    7       11.041955   0.000000
    8       11.041955   0.000000
 
  0.4545455E+00  0.4986105E-17 -0.2775558E-16  0.6010518E-02
    1      -20.844357   1.000000
    2       -6.883856   1.000000
    3       -5.727476   1.022003
    4       -5.727474   1.022004
    5        6.793399   0.000000
    6        9.065050   0.000000
    7       10.851844   0.000000
    8       10.851844   0.000000
 
  0.9090909E-01  0.9090909E-01  0.6938894E-17  0.4507889E-02
    1      -21.028595   1.000000
    2       -5.703283   1.032440
    3       -5.618554   0.888113
    4       -5.618553   0.888104
    5        4.262617   0.000000
    6       10.771017   0.000000
    7       11.402160   0.000000
    8       11.402160   0.000000
 
  0.1818182E+00  0.9090909E-01  0.0000000E+00  0.1803156E-01
    1      -20.994049   1.000000
    2       -5.932025   1.000001
    3       -5.660603   1.019715
    4       -5.642482   0.982846
    5        4.753808   0.000000
    6       10.226675   0.000000
    7       11.498993   0.000000
    8       11.577613   0.000000
 
  0.2727273E+00  0.9090909E-01 -0.1387779E-16  0.1803156E-01
    1      -20.940589   1.000000
    2       -6.271550   1.000000
    3       -5.706746   1.031182
    4       -5.681900   1.034909
    5        5.515621   0.000000
    6        9.636213   0.000000
    7       11.128148   0.000000
    8       11.576352   0.000000
 
  0.3636364E+00  0.9090909E-01 -0.2775558E-16  0.1803156E-01
    1      -20.884692   1.000000
    2       -6.595450   1.000000
    3       -5.742351   1.015538
    4       -5.734385   1.018891
    5        6.318727   0.000000
    6        9.180614   0.000000
    7       10.734631   0.000000
    8       11.332927   0.000000
 
  0.4545455E+00  0.9090909E-01 -0.5551115E-16  0.1803156E-01
    1      -20.844410   1.000000
    2       -6.812411   1.000000
    3       -5.783002   1.004310
    4       -5.756645   1.010427
    5        6.890351   0.000000
    6        8.922373   0.000000
    7       10.590273   0.000000
    8       11.087578   0.000000
 
 -0.4545455E+00  0.9090909E-01  0.5551115E-16  0.1803156E-01
    1      -20.833361   1.000000
    2       -6.869283   1.000000
    3       -5.812243   1.001318
    4       -5.745526   1.014295
    5        7.048377   0.000000
    6        8.871816   0.000000
    7       10.581255   0.000000
    8       10.990482   0.000000
 
 -0.3636364E+00  0.9090909E-01  0.5551115E-16  0.1803156E-01
    1      -20.855354   1.000000
    2       -6.753415   1.000000
    3       -5.812548   1.001301
    4       -5.712360   1.028885
    5        6.755075   0.000000
    6        9.018992   0.000000
    7       10.617094   0.000000
    8       11.092870   0.000000
 
 -0.2727273E+00  0.9090909E-01  0.4857226E-16  0.1803156E-01
    1      -20.902830   1.000000
    2       -6.493451   1.000000
    3       -5.782338   1.004417
    4       -5.667114   1.027029
    5        6.076073   0.000000
    6        9.359311   0.000000
    7       10.836556   0.000000
    8       11.385148   0.000000
 
 -0.1818182E+00  0.9090909E-01  0.2081668E-16  0.1803156E-01
    1      -20.959965   1.000000
    2       -6.159118   1.000000
    3       -5.727602   1.021945
    4       -5.623812   0.913824
    5        5.248837   0.000000
    6        9.874771   0.000000
    7       11.192880   0.000000
    8       11.694978   0.000000
 
 -0.9090909E-01  0.9090909E-01  0.2227978E-16  0.9015778E-02
    1      -21.008596   1.000000
    2       -5.858939   1.000132
    3       -5.657425   1.015110
    4       -5.596509   0.751324
    5        4.550219   0.000000
    6       10.469145   0.000000
    7       11.387523   0.000000
    8       11.525403   0.000000
 
  0.1818182E+00  0.1818182E+00  0.1387779E-16  0.4507889E-02
    1      -20.970426   1.000000
    2       -5.999949   1.000000
    3       -5.714189   1.028087
    4       -5.714188   1.028088
    5        5.070171   0.000000
    6        9.853297   0.000000
    7       11.565820   0.000000
    8       11.860984   0.000000
 
  0.2727273E+00  0.1818182E+00 -0.2775558E-16  0.1803156E-01
    1      -20.926320   1.000000
    2       -6.233919   1.000000
    3       -5.769804   1.006863
    4       -5.768033   1.007280
    5        5.671756   0.000000
    6        9.403701   0.000000
    7       10.779693   0.000000
    8       12.065931   0.000000
 
  0.3636364E+00  0.1818182E+00  0.0000000E+00  0.1803156E-01
    1      -20.875228   1.000000
    2       -6.498064   1.000000
    3       -5.841925   1.000323
    4       -5.809994   1.001455
    5        6.409046   0.000000
    6        9.040452   0.000000
    7       10.203246   0.000000
    8       11.949427   0.000000
 
  0.4545455E+00  0.1818182E+00  0.2775558E-16  0.1803156E-01
    1      -20.833443   1.000000
    2       -6.695023   1.000000
    3       -5.930160   1.000002
    4       -5.822724   1.000821
    5        7.097407   0.000000
    6        8.691515   0.000000
    7       10.057994   0.000000
    8       11.683240   0.000000
 
 -0.4545455E+00  0.1818182E+00  0.5551115E-16  0.1803156E-01
    1      -20.814800   1.000000
    2       -6.772318   1.000000
    3       -6.003513   1.000000
    4       -5.804368   1.001851
    5        7.563444   0.000000
    6        8.418381   0.000000
    7       10.119393   0.000000
    8       11.485308   0.000000
 
 -0.3636364E+00  0.1818182E+00  0.4163336E-16  0.1803156E-01
    1      -20.825658   1.000000
    2       -6.716275   1.000000
    3       -6.032383   1.000000
    4       -5.760404   1.009297
    5        7.430656   0.000000
    6        8.658325   0.000000
    7        9.969583   0.000000
    8       11.453726   0.000000
 
 -0.2727273E+00  0.1818182E+00  0.4857226E-16  0.1803156E-01
    1      -20.862281   1.000000
    2       -6.553950   1.000000
    3       -5.994183   1.000000
    4       -5.704056   1.032172
    5        6.792390   0.000000
    6        9.206963   0.000000
    7        9.908222   0.000000
    8       11.621044   0.000000
 
 -0.1818182E+00  0.1818182E+00  0.4455956E-16  0.9015778E-02
    1      -20.912445   1.000000
    2       -6.347870   1.000000
    3       -5.880684   1.000038
    4       -5.652943   1.007348
    5        5.974209   0.000000
    6        9.554042   0.000000
    7       10.465742   0.000000
    8       11.948685   0.000000
 
  0.2727273E+00  0.2727273E+00  0.0000000E+00  0.4507889E-02
    1      -20.893342   1.000000
    2       -6.340125   1.000000
    3       -5.836457   1.000425
    4       -5.836455   1.000425
    5        6.014858   0.000000
    6        9.005128   0.000000
    7       10.446243   0.000000
    8       12.623833   0.000000
 
  0.3636364E+00  0.2727273E+00  0.2775558E-16  0.1803156E-01
    1      -20.851765   1.000000
    2       -6.509615   1.000000
    3       -5.914737   1.000004
    4       -5.885840   1.000028
    5        6.468682   0.000000
    6        8.719199   0.000000
    7       10.088209   0.000000
    8       12.820101   0.000000
 
  0.4545455E+00  0.2727273E+00 -0.2775558E-16  0.1803156E-01
    1      -20.814754   1.000000
    2       -6.631588   1.000000
    3       -6.041251   1.000000
    4       -5.903271   1.000009
    5        6.967552   0.000000
    6        8.582629   0.000000
    7        9.881852   0.000000
    8       12.596548   0.000000
 
 -0.4545455E+00  0.2727273E+00  0.6938894E-16  0.1803156E-01
    1      -20.794408   1.000000
    2       -6.655613   1.000000
    3       -6.190198   1.000000
    4       -5.883772   1.000032
    5        7.491180   0.000000
    6        8.427669   0.000000
    7        9.876780   0.000000
    8       12.284970   0.000000
 
 -0.3636364E+00  0.2727273E+00  0.6591949E-16  0.1803156E-01
    1      -20.797485   1.000000
    2       -6.595620   1.000000
    3       -6.290539   1.000000
    4       -5.833044   1.000502
    5        8.032751   0.000000
    6        8.213918   0.000000
    7        9.693049   0.000000
    8       12.035373   0.000000
 
 -0.2727273E+00  0.2727273E+00  0.3331859E-16  0.9015778E-02
    1      -20.822927   1.000000
    2       -6.563245   1.000000
    3       -6.213217   1.000000
    4       -5.766189   1.007735
    5        7.575105   0.000000
    6        8.872201   0.000000
    7        9.390644   0.000000
    8       11.847918   0.000000
 
  0.3636364E+00  0.3636364E+00  0.2775558E-16  0.4507889E-02
    1      -20.821553   1.000000
    2       -6.615535   1.000000
    3       -5.945989   1.000001
    4       -5.945987   1.000001
    5        6.507420   0.000000
    6        8.396871   0.000000
    7       10.267898   0.000000
    8       13.683293   0.000000
 
  0.4545455E+00  0.3636364E+00 -0.5551115E-16  0.1803156E-01
    1      -20.794219   1.000000
    2       -6.693261   1.000000
    3       -6.029242   1.000000
    4       -5.972574   1.000000
    5        6.652622   0.000000
    6        8.284448   0.000000
    7       10.354979   0.000000
    8       13.762028   0.000000
 
 -0.4545455E+00  0.3636364E+00  0.6591949E-16  0.1803156E-01
    1      -20.778635   1.000000
    2       -6.672677   1.000000
    3       -6.189000   1.000000
    4       -5.958003   1.000000
    5        6.967566   0.000000
    6        8.376911   0.000000
    7       10.260759   0.000000
    8       13.302389   0.000000
 
 -0.3636364E+00  0.3636364E+00  0.8911911E-16  0.9015778E-02
    1      -20.779885   1.000000
    2       -6.548240   1.000000
    3       -6.378657   1.000000
    4       -5.906457   1.000008
    5        7.451653   0.000000
    6        8.478974   0.000000
    7        9.945899   0.000000
    8       12.695252   0.000000
 
  0.4545455E+00  0.4545455E+00 -0.5551115E-16  0.4507889E-02
    1      -20.778455   1.000000
    2       -6.765461   1.000000
    3       -6.009871   1.000000
    4       -6.009870   1.000000
    5        6.489224   0.000000
    6        8.083677   0.000000
    7       10.759929   0.000000
    8       15.020956   0.000000
 
 -0.4545455E+00  0.4545455E+00  0.4565530E-16  0.9015778E-02
    1      -20.772616   1.000000
    2       -6.756613   1.000000
    3       -6.072325   1.000000
    4       -6.004502   1.000000
    5        6.597654   0.000000
    6        8.136511   0.000000
    7       10.718192   0.000000
    8       14.376835   0.000000
 
  0.2727273E+00  0.1818182E+00  0.9090909E-01  0.1803156E-01
    1      -20.954699   1.000000
    2       -6.131603   1.000000
    3       -5.760055   1.009398
    4       -5.662198   1.021761
    5        5.313318   0.000000
    6        9.779092   0.000000
    7       11.085932   0.000000
    8       11.962509   0.000000
 
  0.3636364E+00  0.1818182E+00  0.9090909E-01  0.3606311E-01
    1      -20.902376   1.000000
    2       -6.400248   1.000000
    3       -5.853200   1.000180
    4       -5.700398   1.033364
    5        6.085489   0.000000
    6        9.362447   0.000000
    7       10.443590   0.000000
    8       11.832919   0.000000
 
  0.4545455E+00  0.1818182E+00  0.9090909E-01  0.3606311E-01
    1      -20.853512   1.000000
    2       -6.643846   1.000000
    3       -5.913705   1.000005
    4       -5.749211   1.012927
    5        6.850581   0.000000
    6        8.961671   0.000000
    7       10.135989   0.000000
    8       11.520777   0.000000
 
 -0.4545455E+00  0.1818182E+00  0.9090909E-01  0.3606311E-01
    1      -20.824086   1.000000
    2       -6.785507   1.000000
    3       -5.941319   1.000001
    4       -5.783920   1.004166
    5        7.361253   0.000000
    6        8.606519   0.000000
    7       10.197485   0.000000
    8       11.331335   0.000000
 
  0.3636364E+00  0.2727273E+00  0.9090909E-01  0.1803156E-01
    1      -20.883436   1.000000
    2       -6.406027   1.000000
    3       -5.890996   1.000020
    4       -5.793969   1.002832
    5        6.241381   0.000000
    6        9.074780   0.000000
    7       10.185148   0.000000
    8       12.453828   0.000000
 
  0.4545455E+00  0.2727273E+00  0.9090909E-01  0.3606311E-01
    1      -20.839370   1.000000
    2       -6.569422   1.000000
    3       -6.002043   1.000000
    4       -5.839594   1.000363
    5        6.894436   0.000000
    6        8.862290   0.000000
    7        9.731072   0.000000
    8       12.263248   0.000000
 
 -0.4545455E+00  0.2727273E+00  0.9090909E-01  0.3606311E-01
    1      -20.808344   1.000000
    2       -6.667885   1.000000
    3       -6.098793   1.000000
    4       -5.867572   1.000082
    5        7.503331   0.000000
    6        8.528226   0.000000
    7        9.745905   0.000000
    8       11.967341   0.000000
 
 -0.3636364E+00  0.2727273E+00  0.9090909E-01  0.3606311E-01
    1      -20.800689   1.000000
    2       -6.677084   1.000000
    3       -6.162558   1.000000
    4       -5.852983   1.000182
    5        8.070367   0.000000
    6        8.101732   0.000000
    7        9.796975   0.000000
    8       11.796812   0.000000
 
 -0.2727273E+00  0.2727273E+00  0.9090909E-01  0.3606311E-01
    1      -20.818980   1.000000
    2       -6.612665   1.000000
    3       -6.150300   1.000000
    4       -5.803859   1.001891
    5        7.553336   0.000000
    6        8.739871   0.000000
    7        9.514321   0.000000
    8       11.842561   0.000000
 
 -0.1818182E+00  0.2727273E+00  0.9090909E-01  0.1803156E-01
    1      -20.857033   1.000000
    2       -6.514886   1.000000
    3       -6.033684   1.000000
    4       -5.744039   1.014870
    5        6.838164   0.000000
    6        9.237217   0.000000
    7        9.612907   0.000000
    8       11.966598   0.000000
 
  0.4545455E+00  0.3636364E+00  0.9090909E-01  0.1803156E-01
    1      -20.817272   1.000000
    2       -6.611259   1.000000
    3       -6.008058   1.000000
    4       -5.932034   1.000001
    5        6.759297   0.000000
    6        8.546437   0.000000
    7        9.965724   0.000000
    8       13.115360   0.000000
 
 -0.4545455E+00  0.3636364E+00  0.9090909E-01  0.3606311E-01
    1      -20.791011   1.000000
    2       -6.640437   1.000000
    3       -6.143825   1.000000
    4       -5.960318   1.000000
    5        7.113313   0.000000
    6        8.561057   0.000000
    7        9.868218   0.000000
    8       12.752747   0.000000
 
 -0.3636364E+00  0.3636364E+00  0.9090909E-01  0.3606311E-01
    1      -20.781586   1.000000
    2       -6.570895   1.000000
    3       -6.317102   1.000000
    4       -5.937693   1.000001
    5        7.528491   0.000000
    6        8.582326   0.000000
    7        9.778072   0.000000
    8       12.271945   0.000000
 
 -0.2727273E+00  0.3636364E+00  0.9090909E-01  0.1803156E-01
    1      -20.792077   1.000000
    2       -6.512845   1.000000
    3       -6.371520   1.000000
    4       -5.876866   1.000048
    5        7.894064   0.000000
    6        8.539463   0.000000
    7        9.470084   0.000000
    8       12.059133   0.000000
 
 -0.4545455E+00  0.4545455E+00  0.9090909E-01  0.1803156E-01
    1      -20.777640   1.000000
    2       -6.716134   1.000000
    3       -6.076227   1.000000
    4       -6.019691   1.000000
    5        6.739999   0.000000
    6        8.268972   0.000000
    7       10.459172   0.000000
    8       13.626101   0.000000
 
 -0.3636364E+00  0.4545455E+00  0.9090909E-01  0.1803156E-01
    1      -20.772939   1.000000
    2       -6.649671   1.000000
    3       -6.211327   1.000000
    4       -6.004774   1.000000
    5        7.047126   0.000000
    6        8.464806   0.000000
    7       10.222217   0.000000
    8       12.837809   0.000000
 
 -0.4545455E+00  0.3636364E+00  0.1818182E+00  0.1803156E-01
    1      -20.806074   1.000000
    2       -6.585965   1.000000
    3       -6.169671   1.000000
    4       -5.899070   1.000012
    5        7.393203   0.000000
    6        8.946991   0.000000
    7        9.252412   0.000000
    8       12.281965   0.000000
 
 -0.3636364E+00  0.3636364E+00  0.1818182E+00  0.3606311E-01
    1      -20.786149   1.000000
    2       -6.560556   1.000000
    3       -6.290099   1.000000
    4       -5.950375   1.000000
    5        7.706567   0.000000
    6        8.771714   0.000000
    7        9.413286   0.000000
    8       11.967027   0.000000
 
 -0.3636364E+00  0.4545455E+00  0.1818182E+00  0.1803156E-01
    1      -20.775771   1.000000
    2       -6.581028   1.000000
    3       -6.248538   1.000000
    4       -6.034006   1.000000
    5        7.322322   0.000000
    6        8.778884   0.000000
    7        9.750080   0.000000
    8       12.166556   0.000000
 
 -0.2727273E+00  0.4545455E+00  0.1818182E+00  0.1803156E-01
    1      -20.773972   1.000000
    2       -6.462819   1.000000
    3       -6.396285   1.000000
    4       -6.028075   1.000000
    5        7.552835   0.000000
    6        9.013341   0.000000
    7        9.490924   0.000000
    8       11.753293   0.000000
