 vasp.5.4.4.18Apr17-6-g9f103f2a35 (build Nov 03 2018 10:20:43) complex          
  
 executed on             LinuxIFC date 2018.12.03  15:13:30
 running on   32 total cores
 distrk:  each k-point on   16 cores,    2 groups
 distr:  one band on NCORES_PER_BAND=   4 cores,    4 groups


--------------------------------------------------------------------------------------------------------


 INCAR:
 POTCAR:    PAW_PBE Ar_GW 21Aug2013               

 ----------------------------------------------------------------------------- 
|                                                                             |
|           W    W    AA    RRRRR   N    N  II  N    N   GGGG   !!!           |
|           W    W   A  A   R    R  NN   N  II  NN   N  G    G  !!!           |
|           W    W  A    A  R    R  N N  N  II  N N  N  G       !!!           |
|           W WW W  AAAAAA  RRRRR   N  N N  II  N  N N  G  GGG   !            |
|           WW  WW  A    A  R   R   N   NN  II  N   NN  G    G                |
|           W    W  A    A  R    R  N    N  II  N    N   GGGG   !!!           |
|                                                                             |
|      You have enabled k-point parallelism (KPAR>1).                         |
|      This developmental code was originally  written by Paul Kent at ORNL,  |
|      and carefully double checked in Vienna.                                |
|      GW as well as linear response parallelism added by Martijn Marsman     |
|      and Georg Kresse.                                                      |
|      Carefully verify results versus KPAR=1.                                |
|      Report problems to Paul Kent and Vienna.                               |
|                                                                             |
 ----------------------------------------------------------------------------- 

 POTCAR:    PAW_PBE Ar_GW 21Aug2013               
   VRHFIN =Ar: s2p6                                                             
   LEXCH  = PE                                                                  
   EATOM  =   579.0493 eV,   42.5589 Ry                                         
                                                                                
   TITEL  = PAW_PBE Ar_GW 21Aug2013                                             
   LULTRA =        F    use ultrasoft PP ?                                      
   IUNSCR =        1    unscreen: 0-lin 1-nonlin 2-no                           
   RPACOR =    1.500    partial core radius                                     
   POMASS =   39.949; ZVAL   =    8.000    mass and valenz                      
   RCORE  =    1.900    outmost cutoff radius                                   
   RWIGS  =    1.900; RWIGS  =    1.005    wigner-seitz radius (au A)           
   ENMAX  =  290.599; ENMIN  =  217.949 eV                                      
   ICORE  =        3    local potential                                         
   LCOR   =        T    correct aug charges                                     
   LPAW   =        T    paw PP                                                  
   EAUG   =  799.859                                                            
   DEXC   =    0.000                                                            
   RMAX   =    1.945    core radius for proj-oper                               
   RAUG   =    1.300    factor for augmentation sphere                          
   RDEP   =    1.972    radius for radial grids                                 
   RDEPT  =    1.517    core radius for aug-charge                              
                                                                                
   Atomic configuration                                                         
    7 entries                                                                   
     n  l   j            E        occ.                                          
     1  0  0.50     -3120.2029   2.0000                                         
     2  0  0.50      -296.9756   2.0000                                         
     2  1  1.50      -229.8673   6.0000                                         
     3  0  0.50       -24.2863   2.0000                                         
     3  1  0.50       -10.2695   6.0000                                         
     3  2  1.50         2.7212   0.0000                                         
     4  3  2.50         2.7212   0.0000                                         
   Description                                                                  
     l       E           TYP  RCUT    TYP  RCUT                                 
     0    -24.2863172     23  1.400                                             
     0     54.4233040     23  1.900                                             
     1    -10.2694819     23  1.900                                             
     1     68.0291300     23  1.900                                             
     2      6.8029130     23  1.900                                             
     2     54.4233040     23  1.900                                             
     3      6.8029130     23  1.900                                             
  local pseudopotential read in
  partial core-charges read in
  partial kinetic energy density read in
  kinetic energy density of atom read in
  atomic valenz-charges read in
  non local Contribution for L=           0  read in
    real space projection operators read in
  non local Contribution for L=           0  read in
    real space projection operators read in
  non local Contribution for L=           1  read in
    real space projection operators read in
  non local Contribution for L=           1  read in
    real space projection operators read in
  non local Contribution for L=           2  read in
    real space projection operators read in
  non local Contribution for L=           2  read in
    real space projection operators read in
    PAW grid and wavefunctions read in
 
   number of l-projection  operators is LMAX  =           6
   number of lm-projection operators is LMMAX =          18
 
  PAW_PBE Ar_GW 21Aug2013               :
 energy of atom  1       EATOM= -579.0493
 kinetic energy error for atom=    0.0038 (will be added to EATOM!!)
 
 
 POSCAR: Ar_FCC                                  
  positions in direct lattice
  velocities in cartesian coordinates

 METAGGA = SCAN     LMAXTAU =  0    LMIXTAU =  F

 exchange correlation table for  LEXCH =        8
   RHO(1)=    0.500       N(1)  =     2000
   RHO(2)=  100.500       N(2)  =     4000
 


--------------------------------------------------------------------------------------------------------


 ion  position               nearest neighbor table
   1  0.000  0.000  0.000-
 
  LATTYP: Found a face centered cubic cell.
 ALAT       =     5.2632652393
  
  Lattice vectors:
  
 A1 = (   3.7216905418,   0.0000000000,   0.0000000000)
 A2 = (   1.8608452709,   3.2230785542,  -0.0000000000)
 A3 = (   1.8608452709,   1.0743595181,   3.0387476027)


Analysis of symmetry for initial positions (statically):
=====================================================================
 Subroutine PRICEL returns:
 Original cell was already a primitive cell.
 

 Routine SETGRP: Setting up the symmetry group for a 
 face centered cubic supercell.


 Subroutine GETGRP returns: Found 48 space group operations
 (whereof 48 operations were pure point group operations)
 out of a pool of 48 trial point group operations.


The static configuration has the point symmetry O_h .


Analysis of symmetry for dynamics (positions and initial velocities):
=====================================================================
 Subroutine PRICEL returns:
 Original cell was already a primitive cell.
 

 Routine SETGRP: Setting up the symmetry group for a 
 face centered cubic supercell.


 Subroutine GETGRP returns: Found 48 space group operations
 (whereof 48 operations were pure point group operations)
 out of a pool of 48 trial point group operations.


The dynamic configuration has the point symmetry O_h .


 Subroutine INISYM returns: Found 48 space group operations
 (whereof 48 operations are pure point group operations),
 and found     1 'primitive' translations

 
 

Automatic generation of k-mesh.
 generate k-points for:   11   11   11
Space group operators:
 irot       det(A)        alpha          n_x          n_y          n_z        tau_x        tau_y        tau_z
    1     1.000000     0.000000     1.000000     0.000000     0.000000     0.000000     0.000000     0.000000
    2    -1.000000     0.000000     1.000000     0.000000     0.000000     0.000000     0.000000     0.000000
    3     1.000000   120.000000    -0.816497    -0.471405    -0.333333     0.000000     0.000000     0.000000
    4    -1.000000   120.000000    -0.816497    -0.471405    -0.333333     0.000000     0.000000     0.000000
    5     1.000000   120.000000     0.816497     0.471405     0.333333     0.000000     0.000000     0.000000
    6    -1.000000   120.000000     0.816497     0.471405     0.333333     0.000000     0.000000     0.000000
    7     1.000000    90.000000    -0.707107    -0.408248     0.577350     0.000000     0.000000     0.000000
    8    -1.000000    90.000000    -0.707107    -0.408248     0.577350     0.000000     0.000000     0.000000
    9     1.000000   180.000000     1.000000     0.000000     0.000000     0.000000     0.000000     0.000000
   10    -1.000000   180.000000     1.000000     0.000000     0.000000     0.000000     0.000000     0.000000
   11     1.000000    90.000000     0.707107    -0.408248     0.577350     0.000000     0.000000     0.000000
   12    -1.000000    90.000000     0.707107    -0.408248     0.577350     0.000000     0.000000     0.000000
   13     1.000000   180.000000     0.707107     0.408248    -0.577350     0.000000     0.000000     0.000000
   14    -1.000000   180.000000     0.707107     0.408248    -0.577350     0.000000     0.000000     0.000000
   15     1.000000   120.000000     0.816497    -0.471405    -0.333333     0.000000     0.000000     0.000000
   16    -1.000000   120.000000     0.816497    -0.471405    -0.333333     0.000000     0.000000     0.000000
   17     1.000000   120.000000     0.000000    -0.942809     0.333333     0.000000     0.000000     0.000000
   18    -1.000000   120.000000     0.000000    -0.942809     0.333333     0.000000     0.000000     0.000000
   19     1.000000    90.000000     0.707107     0.408248    -0.577350     0.000000     0.000000     0.000000
   20    -1.000000    90.000000     0.707107     0.408248    -0.577350     0.000000     0.000000     0.000000
   21     1.000000    90.000000    -0.000000    -0.816497    -0.577350     0.000000     0.000000     0.000000
   22    -1.000000    90.000000    -0.000000    -0.816497    -0.577350     0.000000     0.000000     0.000000
   23     1.000000   180.000000     0.500000     0.866025     0.000000     0.000000     0.000000     0.000000
   24    -1.000000   180.000000     0.500000     0.866025     0.000000     0.000000     0.000000     0.000000
   25     1.000000   120.000000     0.000000     0.942809    -0.333333     0.000000     0.000000     0.000000
   26    -1.000000   120.000000     0.000000     0.942809    -0.333333     0.000000     0.000000     0.000000
   27     1.000000   120.000000    -0.000000     0.000000    -1.000000     0.000000     0.000000     0.000000
   28    -1.000000   120.000000    -0.000000     0.000000    -1.000000     0.000000     0.000000     0.000000
   29     1.000000   180.000000    -0.000000     0.816497     0.577350     0.000000     0.000000     0.000000
   30    -1.000000   180.000000    -0.000000     0.816497     0.577350     0.000000     0.000000     0.000000
   31     1.000000    90.000000    -0.707107     0.408248    -0.577350     0.000000     0.000000     0.000000
   32    -1.000000    90.000000    -0.707107     0.408248    -0.577350     0.000000     0.000000     0.000000
   33     1.000000   179.999999     0.500000     0.288675     0.816497     0.000000     0.000000     0.000000
   34    -1.000000   179.999999     0.500000     0.288675     0.816497     0.000000     0.000000     0.000000
   35     1.000000    90.000000    -0.000000     0.816497     0.577350     0.000000     0.000000     0.000000
   36    -1.000000    90.000000    -0.000000     0.816497     0.577350     0.000000     0.000000     0.000000
   37     1.000000   120.000000    -0.816497     0.471405     0.333333     0.000000     0.000000     0.000000
   38    -1.000000   120.000000    -0.816497     0.471405     0.333333     0.000000     0.000000     0.000000
   39     1.000000   180.000000    -0.707107     0.408248    -0.577350     0.000000     0.000000     0.000000
   40    -1.000000   180.000000    -0.707107     0.408248    -0.577350     0.000000     0.000000     0.000000
   41     1.000000   120.000000    -0.000000    -0.000000     1.000000     0.000000     0.000000     0.000000
   42    -1.000000   120.000000    -0.000000    -0.000000     1.000000     0.000000     0.000000     0.000000
   43     1.000000   180.000000     0.000000     0.577350    -0.816497     0.000000     0.000000     0.000000
   44    -1.000000   180.000000     0.000000     0.577350    -0.816497     0.000000     0.000000     0.000000
   45     1.000000   180.000000    -0.500000     0.866025     0.000000     0.000000     0.000000     0.000000
   46    -1.000000   180.000000    -0.500000     0.866025     0.000000     0.000000     0.000000     0.000000
   47     1.000000   180.000000    -0.500000     0.288675     0.816497     0.000000     0.000000     0.000000
   48    -1.000000   180.000000    -0.500000     0.288675     0.816497     0.000000     0.000000     0.000000
 
 Subroutine IBZKPT returns following result:
 ===========================================
 
 Found     56 irreducible k-points:
 
 Following reciprocal coordinates:
            Coordinates               Weight
  0.000000  0.000000  0.000000      1.000000
  0.090909 -0.000000 -0.000000      8.000000
  0.181818 -0.000000 -0.000000      8.000000
  0.272727 -0.000000 -0.000000      8.000000
  0.363636 -0.000000 -0.000000      8.000000
  0.454545  0.000000 -0.000000      8.000000
  0.090909  0.090909  0.000000      6.000000
  0.181818  0.090909  0.000000     24.000000
  0.272727  0.090909 -0.000000     24.000000
  0.363636  0.090909 -0.000000     24.000000
  0.454545  0.090909 -0.000000     24.000000
 -0.454545  0.090909  0.000000     24.000000
 -0.363636  0.090909  0.000000     24.000000
 -0.272727  0.090909  0.000000     24.000000
 -0.181818  0.090909  0.000000     24.000000
 -0.090909  0.090909  0.000000     12.000000
  0.181818  0.181818  0.000000      6.000000
  0.272727  0.181818 -0.000000     24.000000
  0.363636  0.181818  0.000000     24.000000
  0.454545  0.181818  0.000000     24.000000
 -0.454545  0.181818  0.000000     24.000000
 -0.363636  0.181818  0.000000     24.000000
 -0.272727  0.181818  0.000000     24.000000
 -0.181818  0.181818  0.000000     12.000000
  0.272727  0.272727  0.000000      6.000000
  0.363636  0.272727  0.000000     24.000000
  0.454545  0.272727 -0.000000     24.000000
 -0.454545  0.272727  0.000000     24.000000
 -0.363636  0.272727  0.000000     24.000000
 -0.272727  0.272727  0.000000     12.000000
  0.363636  0.363636  0.000000      6.000000
  0.454545  0.363636 -0.000000     24.000000
 -0.454545  0.363636  0.000000     24.000000
 -0.363636  0.363636  0.000000     12.000000
  0.454545  0.454545 -0.000000      6.000000
 -0.454545  0.454545  0.000000     12.000000
  0.272727  0.181818  0.090909     24.000000
  0.363636  0.181818  0.090909     48.000000
  0.454545  0.181818  0.090909     48.000000
 -0.454545  0.181818  0.090909     48.000000
  0.363636  0.272727  0.090909     24.000000
  0.454545  0.272727  0.090909     48.000000
 -0.454545  0.272727  0.090909     48.000000
 -0.363636  0.272727  0.090909     48.000000
 -0.272727  0.272727  0.090909     48.000000
 -0.181818  0.272727  0.090909     24.000000
  0.454545  0.363636  0.090909     24.000000
 -0.454545  0.363636  0.090909     48.000000
 -0.363636  0.363636  0.090909     48.000000
 -0.272727  0.363636  0.090909     24.000000
 -0.454545  0.454545  0.090909     24.000000
 -0.363636  0.454545  0.090909     24.000000
 -0.454545  0.363636  0.181818     24.000000
 -0.363636  0.363636  0.181818     48.000000
 -0.363636  0.454545  0.181818     24.000000
 -0.272727  0.454545  0.181818     24.000000
 
 Following cartesian coordinates:
            Coordinates               Weight
  0.000000  0.000000  0.000000      1.000000
  0.024427 -0.014103 -0.009972      8.000000
  0.048854 -0.028206 -0.019944      8.000000
  0.073280 -0.042309 -0.029917      8.000000
  0.097707 -0.056411 -0.039889      8.000000
  0.122134 -0.070514 -0.049861      8.000000
  0.024427  0.014103 -0.019944      6.000000
  0.048854  0.000000 -0.029917     24.000000
  0.073280 -0.014103 -0.039889     24.000000
  0.097707 -0.028206 -0.049861     24.000000
  0.122134 -0.042309 -0.059833     24.000000
 -0.122134  0.098720  0.039889     24.000000
 -0.097707  0.084617  0.029917     24.000000
 -0.073280  0.070514  0.019944     24.000000
 -0.048854  0.056411  0.009972     24.000000
 -0.024427  0.042309  0.000000     12.000000
  0.048854  0.028206 -0.039889      6.000000
  0.073280  0.014103 -0.049861     24.000000
  0.097707  0.000000 -0.059833     24.000000
  0.122134 -0.014103 -0.069805     24.000000
 -0.122134  0.126926  0.029917     24.000000
 -0.097707  0.112823  0.019944     24.000000
 -0.073280  0.098720  0.009972     24.000000
 -0.048854  0.084617  0.000000     12.000000
  0.073280  0.042309 -0.059833      6.000000
  0.097707  0.028206 -0.069805     24.000000
  0.122134  0.014103 -0.079778     24.000000
 -0.122134  0.155131  0.019944     24.000000
 -0.097707  0.141028  0.009972     24.000000
 -0.073280  0.126926  0.000000     12.000000
  0.097707  0.056411 -0.079778      6.000000
  0.122134  0.042309 -0.089750     24.000000
 -0.122134  0.183337  0.009972     24.000000
 -0.097707  0.169234  0.000000     12.000000
  0.122134  0.070514 -0.099722      6.000000
 -0.122134  0.211543  0.000000     12.000000
  0.073280  0.014103 -0.019944     24.000000
  0.097707  0.000000 -0.029917     48.000000
  0.122134 -0.014103 -0.039889     48.000000
 -0.122134  0.126926  0.059833     48.000000
  0.097707  0.028206 -0.039889     24.000000
  0.122134  0.014103 -0.049861     48.000000
 -0.122134  0.155131  0.049861     48.000000
 -0.097707  0.141028  0.039889     48.000000
 -0.073280  0.126926  0.029917     48.000000
 -0.048854  0.112823  0.019944     24.000000
  0.122134  0.042309 -0.059833     24.000000
 -0.122134  0.183337  0.039889     48.000000
 -0.097707  0.169234  0.029917     48.000000
 -0.073280  0.155131  0.019944     24.000000
 -0.122134  0.211543  0.029917     24.000000
 -0.097707  0.197440  0.019944     24.000000
 -0.122134  0.183337  0.069805     24.000000
 -0.097707  0.169234  0.059833     48.000000
 -0.097707  0.197440  0.049861     24.000000
 -0.073280  0.183337  0.039889     24.000000
 


--------------------------------------------------------------------------------------------------------




 Dimension of arrays:
   k-points           NKPTS =     56   k-points in BZ     NKDIM =     56   number of bands    NBANDS=      8
   number of dos      NEDOS =    301   number of ions     NIONS =      1
   non local maximal  LDIM  =      6   non local SUM 2l+1 LMDIM =     18
   total plane-waves  NPLWV =  27000
   max r-space proj   IRMAX =      1   max aug-charges    IRDMAX= 108093
   dimension x,y,z NGX =    30 NGY =   30 NGZ =   30
   dimension x,y,z NGXF=    60 NGYF=   60 NGZF=   60
   support grid    NGXF=   120 NGYF=  120 NGZF=  120
   ions per type =               1
   NGX,Y,Z   is equivalent  to a cutoff of  13.40, 13.40, 13.40 a.u.
   NGXF,Y,Z  is equivalent  to a cutoff of  26.80, 26.80, 26.80 a.u.

 SYSTEM =  Cn_FCC                                  
 POSCAR =  Ar_FCC                                  

 Startparameter for this run:
   NWRITE =      2    write-flag & timer
   PREC   = accura    normal or accurate (medium, high low for compatibility)
   ISTART =      0    job   : 0-new  1-cont  2-samecut
   ICHARG =      2    charge: 1-file 2-atom 10-const
   ISPIN  =      1    spin polarized calculation?
   LNONCOLLINEAR =      F non collinear calculations
   LSORBIT =      F    spin-orbit coupling
   INIWAV =      1    electr: 0-lowe 1-rand  2-diag
   LASPH  =      F    aspherical Exc in radial PAW
   METAGGA=      F    non-selfconsistent MetaGGA calc.

 Electronic Relaxation 1
   ENCUT  =  600.0 eV  44.10 Ry    6.64 a.u.   7.43  7.43  7.43*2*pi/ulx,y,z
   ENINI  =  600.0     initial cutoff
   ENAUG  =  799.9 eV  augmentation charge cutoff
   NELM   =    100;   NELMIN=  5; NELMDL= -5     # of ELM steps 
   EDIFF  = 0.1E-06   stopping-criterion for ELM
   LREAL  =      F    real-space projection
   NLSPLINE    = F    spline interpolate recip. space projectors
   LCOMPAT=      F    compatible to vasp.4.4
   GGA_COMPAT  = F    GGA compatible to vasp.4.4-vasp.4.6
   LMAXPAW     = -100 max onsite density
   LMAXMIX     =    2 max onsite mixed and CHGCAR
   VOSKOWN=      0    Vosko Wilk Nusair interpolation
   ROPT   =    0.00000
 Ionic relaxation
   EDIFFG = 0.1E-04   stopping-criterion for IOM
   NSW    =    999    number of steps for IOM
   NBLOCK =      1;   KBLOCK =    999    inner block; outer block 
   IBRION =      1    ionic relax: 0-MD 1-quasi-New 2-CG
   NFREE  =      5    steps in history (QN), initial steepest desc. (CG)
   ISIF   =      7    stress and relaxation
   IWAVPR =     11    prediction:  0-non 1-charg 2-wave 3-comb
   ISYM   =      2    0-nonsym 1-usesym 2-fastsym
   LCORR  =      T    Harris-Foulkes like correction to forces

   POTIM  = 0.1000    time-step for ionic-motion
   TEIN   =    0.0    initial temperature
   TEBEG  =    0.0;   TEEND  =   0.0 temperature during run
   SMASS  =  -3.00    Nose mass-parameter (am)
   estimated Nose-frequenzy (Omega)   =  0.10E-29 period in steps =****** mass=  -0.317E-27a.u.
   SCALEE = 1.0000    scale energy and forces
   NPACO  =    256;   APACO  = 16.0  distance and # of slots for P.C.
   PSTRESS=    0.0 pullay stress

  Mass of Ions in am
   POMASS =  39.95
  Ionic Valenz
   ZVAL   =   8.00
  Atomic Wigner-Seitz radii
   RWIGS  =  -1.00
  virtual crystal weights 
   VCA    =   1.00
   NELECT =       8.0000    total number of electrons
   NUPDOWN=      -1.0000    fix difference up-down

 DOS related values:
   EMIN   =  10.00;   EMAX   =-10.00  energy-range for DOS
   EFERMI =   0.00
   ISMEAR =     1;   SIGMA  =   0.10  broadening in eV -4-tet -1-fermi 0-gaus

 Electronic relaxation 2 (details)
   IALGO  =     68    algorithm
   LDIAG  =      T    sub-space diagonalisation (order eigenvalues)
   LSUBROT=      F    optimize rotation matrix (better conditioning)
   TURBO    =      0    0=normal 1=particle mesh
   IRESTART =      0    0=no restart 2=restart with 2 vectors
   NREBOOT  =      0    no. of reboots
   NMIN     =      0    reboot dimension
   EREF     =   0.00    reference energy to select bands
   IMIX   =      4    mixing-type and parameters
     AMIX     =   0.40;   BMIX     =  1.00
     AMIX_MAG =   1.60;   BMIX_MAG =  1.00
     AMIN     =   0.10
     WC   =   100.;   INIMIX=   1;  MIXPRE=   1;  MAXMIX=  50

 Intra band minimization:
   WEIMIN = 0.0010     energy-eigenvalue tresh-hold
   EBREAK =  0.31E-08  absolut break condition
   DEPER  =   0.30     relativ break condition  

   TIME   =   0.40     timestep for ELM

  volume/ion in A,a.u.               =      36.45       245.98
  Fermi-wavevector in a.u.,A,eV,Ry     =   0.987498  1.866101 13.267753  0.975152
  Thomas-Fermi vector in A             =   2.118956
 
 Write flags
   LWAVE        =      F    write WAVECAR
   LDOWNSAMPLE  =      F    k-point downsampling of WAVECAR
   LCHARG       =      F    write CHGCAR
   LVTOT        =      F    write LOCPOT, total local potential
   LVHAR        =      F    write LOCPOT, Hartree potential only
   LELF         =      F    write electronic localiz. function (ELF)
   LORBIT       =      0    0 simple, 1 ext, 2 COOP (PROOUT), +10 PAW based schemes


 Dipole corrections
   LMONO  =      F    monopole corrections only (constant potential shift)
   LDIPOL =      F    correct potential (dipole corrections)
   IDIPOL =      0    1-x, 2-y, 3-z, 4-all directions 
   EPSILON=  1.0000000 bulk dielectric constant

 Exchange correlation treatment:
   GGA     =    --    GGA type
   LEXCH   =     8    internal setting for exchange type
   VOSKOWN=      0    Vosko Wilk Nusair interpolation
   LHFCALC =     F    Hartree Fock is set to
   LHFONE  =     F    Hartree Fock one center treatment
   AEXX    =    0.0000 exact exchange contribution

 Linear response parameters
   LEPSILON=     F    determine dielectric tensor
   LRPA    =     F    only Hartree local field effects (RPA)
   LNABLA  =     F    use nabla operator in PAW spheres
   LVEL    =     F    velocity operator in full k-point grid
   LINTERFAST=   F  fast interpolation
   KINTER  =     0    interpolate to denser k-point grid
   CSHIFT  =0.1000    complex shift for real part using Kramers Kronig
   OMEGAMAX=  -1.0    maximum frequency
   DEG_THRESHOLD= 0.2000000E-02 threshold for treating states as degnerate
   RTIME   =   -0.100 relaxation time in fs
  (WPLASMAI=    0.000 imaginary part of plasma frequency in eV, 0.658/RTIME)
   DFIELD  = 0.0000000 0.0000000 0.0000000 field for delta impulse in time
 
 Orbital magnetization related:
   ORBITALMAG=     F  switch on orbital magnetization
   LCHIMAG   =     F  perturbation theory with respect to B field
   DQ        =  0.001000  dq finite difference perturbation B field
   LLRAUG    =     F  two centre corrections for induced B field



--------------------------------------------------------------------------------------------------------


 quasi-Newton-method for relaxation of ions
 charge density and potential will be updated during run
 non-spin polarized calculation
 RMM-DIIS sequential band-by-band and
  variant of blocked Davidson during initial phase
 perform sub-space diagonalisation
    before iterative eigenvector-optimisation
 modified Broyden-mixing scheme, WC =      100.0
 initial mixing is a Kerker type mixing with AMIX =  0.4000 and BMIX =      1.0000
 Hartree-type preconditioning will be used
 using additional bands            4
 reciprocal scheme for non local part
 use partial core corrections
 calculate Harris-corrections to forces 
   (improved forces if not selfconsistent)
 use gradient corrections 
 use of overlap-Matrix (Vanderbilt PP)
 Methfessel and Paxton  Order N= 1 SIGMA  =   0.10


--------------------------------------------------------------------------------------------------------


  energy-cutoff  :      600.00
  volume of cell :       36.45
      direct lattice vectors                 reciprocal lattice vectors
     3.721690542  0.000000000  0.000000000     0.268695097 -0.155131186 -0.109694314
     1.860845271  3.223078554 -0.000000000     0.000000000  0.310262373 -0.109694314
     1.860845271  1.074359518  3.038747603    -0.000000000  0.000000000  0.329082942

  length of vectors
     3.721690542  3.721690542  3.721690542     0.329082942  0.329082942  0.329082942


 
 k-points in units of 2pi/SCALE and weight: read from INCAR                         
   0.00000000  0.00000000  0.00000000       0.001
   0.02442683 -0.01410284 -0.00997221       0.006
   0.04885365 -0.02820567 -0.01994442       0.006
   0.07328048 -0.04230851 -0.02991663       0.006
   0.09770731 -0.05641134 -0.03988884       0.006
   0.12213413 -0.07051418 -0.04986105       0.006
   0.02442683  0.01410284 -0.01994442       0.005
   0.04885365  0.00000000 -0.02991663       0.018
   0.07328048 -0.01410284 -0.03988884       0.018
   0.09770731 -0.02820567 -0.04986105       0.018
   0.12213413 -0.04230851 -0.05983326       0.018
  -0.12213413  0.09871985  0.03988884       0.018
  -0.09770731  0.08461701  0.02991663       0.018
  -0.07328048  0.07051418  0.01994442       0.018
  -0.04885365  0.05641134  0.00997221       0.018
  -0.02442683  0.04230851  0.00000000       0.009
   0.04885365  0.02820567 -0.03988884       0.005
   0.07328048  0.01410284 -0.04986105       0.018
   0.09770731  0.00000000 -0.05983326       0.018
   0.12213413 -0.01410284 -0.06980547       0.018
  -0.12213413  0.12692552  0.02991663       0.018
  -0.09770731  0.11282268  0.01994442       0.018
  -0.07328048  0.09871985  0.00997221       0.018
  -0.04885365  0.08461701  0.00000000       0.009
   0.07328048  0.04230851 -0.05983326       0.005
   0.09770731  0.02820567 -0.06980547       0.018
   0.12213413  0.01410284 -0.07977768       0.018
  -0.12213413  0.15513119  0.01994442       0.018
  -0.09770731  0.14102835  0.00997221       0.018
  -0.07328048  0.12692552  0.00000000       0.009
   0.09770731  0.05641134 -0.07977768       0.005
   0.12213413  0.04230851 -0.08974989       0.018
  -0.12213413  0.18333686  0.00997221       0.018
  -0.09770731  0.16923402  0.00000000       0.009
   0.12213413  0.07051418 -0.09972210       0.005
  -0.12213413  0.21154253  0.00000000       0.009
   0.07328048  0.01410284 -0.01994442       0.018
   0.09770731  0.00000000 -0.02991663       0.036
   0.12213413 -0.01410284 -0.03988884       0.036
  -0.12213413  0.12692552  0.05983326       0.036
   0.09770731  0.02820567 -0.03988884       0.018
   0.12213413  0.01410284 -0.04986105       0.036
  -0.12213413  0.15513119  0.04986105       0.036
  -0.09770731  0.14102835  0.03988884       0.036
  -0.07328048  0.12692552  0.02991663       0.036
  -0.04885365  0.11282268  0.01994442       0.018
   0.12213413  0.04230851 -0.05983326       0.018
  -0.12213413  0.18333686  0.03988884       0.036
  -0.09770731  0.16923402  0.02991663       0.036
  -0.07328048  0.15513119  0.01994442       0.018
  -0.12213413  0.21154253  0.02991663       0.018
  -0.09770731  0.19743969  0.01994442       0.018
  -0.12213413  0.18333686  0.06980547       0.018
  -0.09770731  0.16923402  0.05983326       0.036
  -0.09770731  0.19743969  0.04986105       0.018
  -0.07328048  0.18333686  0.03988884       0.018
 
 k-points in reciprocal lattice and weights: read from INCAR                         
   0.00000000  0.00000000  0.00000000       0.001
   0.09090909 -0.00000000 -0.00000000       0.006
   0.18181818 -0.00000000 -0.00000000       0.006
   0.27272727 -0.00000000 -0.00000000       0.006
   0.36363636 -0.00000000 -0.00000000       0.006
   0.45454545  0.00000000 -0.00000000       0.006
   0.09090909  0.09090909  0.00000000       0.005
   0.18181818  0.09090909  0.00000000       0.018
   0.27272727  0.09090909 -0.00000000       0.018
   0.36363636  0.09090909 -0.00000000       0.018
   0.45454545  0.09090909 -0.00000000       0.018
  -0.45454545  0.09090909  0.00000000       0.018
  -0.36363636  0.09090909  0.00000000       0.018
  -0.27272727  0.09090909  0.00000000       0.018
  -0.18181818  0.09090909  0.00000000       0.018
  -0.09090909  0.09090909  0.00000000       0.009
   0.18181818  0.18181818  0.00000000       0.005
   0.27272727  0.18181818 -0.00000000       0.018
   0.36363636  0.18181818  0.00000000       0.018
   0.45454545  0.18181818  0.00000000       0.018
  -0.45454545  0.18181818  0.00000000       0.018
  -0.36363636  0.18181818  0.00000000       0.018
  -0.27272727  0.18181818  0.00000000       0.018
  -0.18181818  0.18181818  0.00000000       0.009
   0.27272727  0.27272727  0.00000000       0.005
   0.36363636  0.27272727  0.00000000       0.018
   0.45454545  0.27272727 -0.00000000       0.018
  -0.45454545  0.27272727  0.00000000       0.018
  -0.36363636  0.27272727  0.00000000       0.018
  -0.27272727  0.27272727  0.00000000       0.009
   0.36363636  0.36363636  0.00000000       0.005
   0.45454545  0.36363636 -0.00000000       0.018
  -0.45454545  0.36363636  0.00000000       0.018
  -0.36363636  0.36363636  0.00000000       0.009
   0.45454545  0.45454545 -0.00000000       0.005
  -0.45454545  0.45454545  0.00000000       0.009
   0.27272727  0.18181818  0.09090909       0.018
   0.36363636  0.18181818  0.09090909       0.036
   0.45454545  0.18181818  0.09090909       0.036
  -0.45454545  0.18181818  0.09090909       0.036
   0.36363636  0.27272727  0.09090909       0.018
   0.45454545  0.27272727  0.09090909       0.036
  -0.45454545  0.27272727  0.09090909       0.036
  -0.36363636  0.27272727  0.09090909       0.036
  -0.27272727  0.27272727  0.09090909       0.036
  -0.18181818  0.27272727  0.09090909       0.018
   0.45454545  0.36363636  0.09090909       0.018
  -0.45454545  0.36363636  0.09090909       0.036
  -0.36363636  0.36363636  0.09090909       0.036
  -0.27272727  0.36363636  0.09090909       0.018
  -0.45454545  0.45454545  0.09090909       0.018
  -0.36363636  0.45454545  0.09090909       0.018
  -0.45454545  0.36363636  0.18181818       0.018
  -0.36363636  0.36363636  0.18181818       0.036
  -0.36363636  0.45454545  0.18181818       0.018
  -0.27272727  0.45454545  0.18181818       0.018
 
 position of ions in fractional coordinates (direct lattice) 
   0.00000000  0.00000000  0.00000000
 
 position of ions in cartesian coordinates  (Angst):
   0.00000000  0.00000000  0.00000000
 


--------------------------------------------------------------------------------------------------------


 k-point  1 :   0.0000 0.0000 0.0000  plane waves:    1243
 k-point  2 :   0.0909-0.0000-0.0000  plane waves:    1239
 k-point  3 :   0.1818-0.0000-0.0000  plane waves:    1227
 k-point  4 :   0.2727-0.0000-0.0000  plane waves:    1215
 k-point  5 :   0.3636-0.0000-0.0000  plane waves:    1221
 k-point  6 :   0.4545 0.0000-0.0000  plane waves:    1209
 k-point  7 :   0.0909 0.0909 0.0000  plane waves:    1239
 k-point  8 :   0.1818 0.0909 0.0000  plane waves:    1225
 k-point  9 :   0.2727 0.0909-0.0000  plane waves:    1221
 k-point 10 :   0.3636 0.0909-0.0000  plane waves:    1226
 k-point 11 :   0.4545 0.0909-0.0000  plane waves:    1210
 k-point 12 :  -0.4545 0.0909 0.0000  plane waves:    1205
 k-point 13 :  -0.3636 0.0909 0.0000  plane waves:    1214
 k-point 14 :  -0.2727 0.0909 0.0000  plane waves:    1222
 k-point 15 :  -0.1818 0.0909 0.0000  plane waves:    1222
 k-point 16 :  -0.0909 0.0909 0.0000  plane waves:    1223
 k-point 17 :   0.1818 0.1818 0.0000  plane waves:    1227
 k-point 18 :   0.2727 0.1818-0.0000  plane waves:    1226
 k-point 19 :   0.3636 0.1818 0.0000  plane waves:    1219
 k-point 20 :   0.4545 0.1818 0.0000  plane waves:    1218
 k-point 21 :  -0.4545 0.1818 0.0000  plane waves:    1208
 k-point 22 :  -0.3636 0.1818 0.0000  plane waves:    1215
 k-point 23 :  -0.2727 0.1818 0.0000  plane waves:    1215
 k-point 24 :  -0.1818 0.1818 0.0000  plane waves:    1229
 k-point 25 :   0.2727 0.2727 0.0000  plane waves:    1230
 k-point 26 :   0.3636 0.2727 0.0000  plane waves:    1228
 k-point 27 :   0.4545 0.2727-0.0000  plane waves:    1215
 k-point 28 :  -0.4545 0.2727 0.0000  plane waves:    1211
 k-point 29 :  -0.3636 0.2727 0.0000  plane waves:    1206
 k-point 30 :  -0.2727 0.2727 0.0000  plane waves:    1203
 k-point 31 :   0.3636 0.3636 0.0000  plane waves:    1218
 k-point 32 :   0.4545 0.3636-0.0000  plane waves:    1219
 k-point 33 :  -0.4545 0.3636 0.0000  plane waves:    1218
 k-point 34 :  -0.3636 0.3636 0.0000  plane waves:    1214
 k-point 35 :   0.4545 0.4545-0.0000  plane waves:    1218
 k-point 36 :  -0.4545 0.4545 0.0000  plane waves:    1210
 k-point 37 :   0.2727 0.1818 0.0909  plane waves:    1232
 k-point 38 :   0.3636 0.1818 0.0909  plane waves:    1223
 k-point 39 :   0.4545 0.1818 0.0909  plane waves:    1223
 k-point 40 :  -0.4545 0.1818 0.0909  plane waves:    1212
 k-point 41 :   0.3636 0.2727 0.0909  plane waves:    1230
 k-point 42 :   0.4545 0.2727 0.0909  plane waves:    1225
 k-point 43 :  -0.4545 0.2727 0.0909  plane waves:    1215
 k-point 44 :  -0.3636 0.2727 0.0909  plane waves:    1208
 k-point 45 :  -0.2727 0.2727 0.0909  plane waves:    1214
 k-point 46 :  -0.1818 0.2727 0.0909  plane waves:    1212
 k-point 47 :   0.4545 0.3636 0.0909  plane waves:    1220
 k-point 48 :  -0.4545 0.3636 0.0909  plane waves:    1210
 k-point 49 :  -0.3636 0.3636 0.0909  plane waves:    1213
 k-point 50 :  -0.2727 0.3636 0.0909  plane waves:    1209
 k-point 51 :  -0.4545 0.4545 0.0909  plane waves:    1209
 k-point 52 :  -0.3636 0.4545 0.0909  plane waves:    1213
 k-point 53 :  -0.4545 0.3636 0.1818  plane waves:    1210
 k-point 54 :  -0.3636 0.3636 0.1818  plane waves:    1208
 k-point 55 :  -0.3636 0.4545 0.1818  plane waves:    1210
 k-point 56 :  -0.2727 0.4545 0.1818  plane waves:    1215

 maximum and minimum number of plane-waves per node :       320      291

 maximum number of plane-waves:      1243
 maximum index in each direction: 
   IXMAX=    7   IYMAX=    7   IZMAX=    7
   IXMIN=   -7   IYMIN=   -7   IZMIN=   -7


 parallel 3D FFT for wavefunctions:
    minimum data exchange during FFTs selected (reduces bandwidth)
 parallel 3D FFT for charge:
    minimum data exchange during FFTs selected (reduces bandwidth)


 total amount of memory used by VASP MPI-rank0    36823. kBytes
=======================================================================

   base      :      30000. kBytes
   nonl-proj :       2553. kBytes
   fftplans  :       2306. kBytes
   grid      :       1347. kBytes
   one-center:         15. kBytes
   wavefun   :        602. kBytes
 
     INWAV:  cpu time    0.0000: real time    0.0002
 Broyden mixing: mesh for mixing (old mesh)
   NGX = 15   NGY = 15   NGZ = 15
  (NGX  = 60   NGY  = 60   NGZ  = 60)
  gives a total of   3375 points

 initial charge density was supplied:
 charge density of overlapping atoms calculated
 number of electron       8.0000000 magnetization 
 keeping initial charge density in first step


--------------------------------------------------------------------------------------------------------


 Maximum index for augmentation-charges         7685 (set IRDMAX)


--------------------------------------------------------------------------------------------------------


 First call to EWALD:  gamma=   0.535
 Maximum number of real-space cells 3x 3x 3
 Maximum number of reciprocal cells 3x 3x 3

    FEWALD:  cpu time    0.0021: real time    0.0021


--------------------------------------- Iteration      1(   1)  ---------------------------------------


    POTLOK:  cpu time    0.0451: real time    0.0458
    SETDIJ:  cpu time    0.0506: real time    0.0507
     EDDAV:  cpu time    0.2575: real time    0.2579
       DOS:  cpu time    0.0005: real time    0.0005
    --------------------------------------------
      LOOP:  cpu time    0.3538: real time    0.3549

 eigenvalue-minimisations  :   896
 total energy-change (2. order) : 0.3508333E+02  (-0.3924740E+03)
 number of electron       8.0000000 magnetization 
 augmentation part        8.0000000 magnetization 

 Free energy of the ion-electron system (eV)
  ---------------------------------------------------
  alpha Z        PSCENC =         8.24390778
  Ewald energy   TEWEN  =      -401.39972460
  -Hartree energ DENC   =      -137.96420581
  -exchange      EXHF   =         0.00000000
  -V(xc)+E(xc)   XCENC  =        33.54959883
  PAW double counting   =       459.42379500     -469.89655844
  entropy T*S    EENTRO =        -0.00013217
  eigenvalues    EBANDS =       -35.91888826
  atomic energy  EATOM  =       579.04554086
  Solvation  Ediel_sol  =         0.00000000
  ---------------------------------------------------
  free energy    TOTEN  =        35.08333319 eV

  energy without entropy =       35.08346535  energy(sigma->0) =       35.08337724


--------------------------------------------------------------------------------------------------------




--------------------------------------- Iteration      1(   2)  ---------------------------------------


     EDDAV:  cpu time    0.3524: real time    0.3530
       DOS:  cpu time    0.0008: real time    0.0005
    --------------------------------------------
      LOOP:  cpu time    0.3532: real time    0.3535

 eigenvalue-minimisations  :  1288
 total energy-change (2. order) :-0.4297151E+02  (-0.4085995E+02)
 number of electron       8.0000000 magnetization 
 augmentation part        8.0000000 magnetization 

 Free energy of the ion-electron system (eV)
  ---------------------------------------------------
  alpha Z        PSCENC =         8.24390778
  Ewald energy   TEWEN  =      -401.39972460
  -Hartree energ DENC   =      -137.96420581
  -exchange      EXHF   =         0.00000000
  -V(xc)+E(xc)   XCENC  =        33.54959883
  PAW double counting   =       459.42379500     -469.89655844
  entropy T*S    EENTRO =         0.00010507
  eigenvalues    EBANDS =       -78.89063795
  atomic energy  EATOM  =       579.04554086
  Solvation  Ediel_sol  =         0.00000000
  ---------------------------------------------------
  free energy    TOTEN  =        -7.88817926 eV

  energy without entropy =       -7.88828433  energy(sigma->0) =       -7.88821428


--------------------------------------------------------------------------------------------------------




--------------------------------------- Iteration      1(   3)  ---------------------------------------


     EDDAV:  cpu time    0.3009: real time    0.3017
       DOS:  cpu time    0.0008: real time    0.0005
    --------------------------------------------
      LOOP:  cpu time    0.3016: real time    0.3022

 eigenvalue-minimisations  :  1128
 total energy-change (2. order) :-0.1130192E+01  (-0.1131155E+01)
 number of electron       8.0000000 magnetization 
 augmentation part        8.0000000 magnetization 

 Free energy of the ion-electron system (eV)
  ---------------------------------------------------
  alpha Z        PSCENC =         8.24390778
  Ewald energy   TEWEN  =      -401.39972460
  -Hartree energ DENC   =      -137.96420581
  -exchange      EXHF   =         0.00000000
  -V(xc)+E(xc)   XCENC  =        33.54959883
  PAW double counting   =       459.42379500     -469.89655844
  entropy T*S    EENTRO =         0.00302717
  eigenvalues    EBANDS =       -80.02375166
  atomic energy  EATOM  =       579.04554086
  Solvation  Ediel_sol  =         0.00000000
  ---------------------------------------------------
  free energy    TOTEN  =        -9.01837088 eV

  energy without entropy =       -9.02139804  energy(sigma->0) =       -9.01937993


--------------------------------------------------------------------------------------------------------




--------------------------------------- Iteration      1(   4)  ---------------------------------------


     EDDAV:  cpu time    0.3807: real time    0.3817
       DOS:  cpu time    0.0008: real time    0.0005
    --------------------------------------------
      LOOP:  cpu time    0.3815: real time    0.3822

 eigenvalue-minimisations  :  1544
 total energy-change (2. order) :-0.6156841E-02  (-0.6155979E-02)
 number of electron       8.0000000 magnetization 
 augmentation part        8.0000000 magnetization 

 Free energy of the ion-electron system (eV)
  ---------------------------------------------------
  alpha Z        PSCENC =         8.24390778
  Ewald energy   TEWEN  =      -401.39972460
  -Hartree energ DENC   =      -137.96420581
  -exchange      EXHF   =         0.00000000
  -V(xc)+E(xc)   XCENC  =        33.54959883
  PAW double counting   =       459.42379500     -469.89655844
  entropy T*S    EENTRO =         0.00304501
  eigenvalues    EBANDS =       -80.02992635
  atomic energy  EATOM  =       579.04554086
  Solvation  Ediel_sol  =         0.00000000
  ---------------------------------------------------
  free energy    TOTEN  =        -9.02452772 eV

  energy without entropy =       -9.02757273  energy(sigma->0) =       -9.02554272


--------------------------------------------------------------------------------------------------------




--------------------------------------- Iteration      1(   5)  ---------------------------------------


     EDDAV:  cpu time    0.3501: real time    0.3511
       DOS:  cpu time    0.0007: real time    0.0005
    CHARGE:  cpu time    0.0989: real time    0.0993
    MIXING:  cpu time    0.0015: real time    0.0015
    --------------------------------------------
      LOOP:  cpu time    0.4514: real time    0.4524

 eigenvalue-minimisations  :  1360
 total energy-change (2. order) :-0.2058762E-04  (-0.2058722E-04)
 number of electron       8.0000000 magnetization 
 augmentation part       -0.5232278 magnetization 

 Broyden mixing:
  rms(total) = 0.29819E-01    rms(broyden)= 0.29700E-01
  rms(prec ) = 0.97810E-01
  weight for this iteration     100.00

 Free energy of the ion-electron system (eV)
  ---------------------------------------------------
  alpha Z        PSCENC =         8.24390778
  Ewald energy   TEWEN  =      -401.39972460
  -Hartree energ DENC   =      -137.96420581
  -exchange      EXHF   =         0.00000000
  -V(xc)+E(xc)   XCENC  =        33.54959883
  PAW double counting   =       459.42379500     -469.89655844
  entropy T*S    EENTRO =         0.00304489
  eigenvalues    EBANDS =       -80.02994682
  atomic energy  EATOM  =       579.04554086
  Solvation  Ediel_sol  =         0.00000000
  ---------------------------------------------------
  free energy    TOTEN  =        -9.02454831 eV

  energy without entropy =       -9.02759320  energy(sigma->0) =       -9.02556327


--------------------------------------------------------------------------------------------------------




--------------------------------------- Iteration      1(   6)  ---------------------------------------


    POTLOK:  cpu time    0.0389: real time    0.0391
    SETDIJ:  cpu time    0.0397: real time    0.0397
    EDDIAG:  cpu time    0.0744: real time    0.0747
  RMM-DIIS:  cpu time    0.3457: real time    0.3462
    ORTHCH:  cpu time    0.0021: real time    0.0021
       DOS:  cpu time    0.0007: real time    0.0005
    CHARGE:  cpu time    0.0966: real time    0.0970
    MIXING:  cpu time    0.0015: real time    0.0015
    --------------------------------------------
      LOOP:  cpu time    0.5996: real time    0.6008

 eigenvalue-minimisations  :   896
 total energy-change (2. order) : 0.2100860E+01  (-0.2108328E-01)
 number of electron       8.0000000 magnetization 
 augmentation part       -0.5139822 magnetization 

 Broyden mixing:
  rms(total) = 0.19812E-01    rms(broyden)= 0.19783E-01
  rms(prec ) = 0.59319E-01
  weight for this iteration     100.00

 eigenvalues of (default mixing * dielectric matrix)
  average eigenvalue GAMMA=   0.6280
  0.6280

 Free energy of the ion-electron system (eV)
  ---------------------------------------------------
  alpha Z        PSCENC =         8.24390778
  Ewald energy   TEWEN  =      -401.39972460
  -Hartree energ DENC   =      -137.23880524
  -exchange      EXHF   =         0.00000000
  -V(xc)+E(xc)   XCENC  =        34.12457981
  PAW double counting   =       457.34051416     -467.79498937
  entropy T*S    EENTRO =         0.00339830
  eigenvalues    EBANDS =       -79.24810964
  atomic energy  EATOM  =       579.04554086
  Solvation  Ediel_sol  =         0.00000000
  ---------------------------------------------------
  free energy    TOTEN  =        -6.92368794 eV

  energy without entropy =       -6.92708624  energy(sigma->0) =       -6.92482071


--------------------------------------------------------------------------------------------------------




--------------------------------------- Iteration      1(   7)  ---------------------------------------


    POTLOK:  cpu time    0.0388: real time    0.0390
    SETDIJ:  cpu time    0.0390: real time    0.0390
    EDDIAG:  cpu time    0.0723: real time    0.0724
  RMM-DIIS:  cpu time    0.3547: real time    0.3553
    ORTHCH:  cpu time    0.0021: real time    0.0021
       DOS:  cpu time    0.0005: real time    0.0005
    CHARGE:  cpu time    0.0970: real time    0.0970
    MIXING:  cpu time    0.0009: real time    0.0009
    --------------------------------------------
      LOOP:  cpu time    0.6053: real time    0.6062

 eigenvalue-minimisations  :   896
 total energy-change (2. order) : 0.1385171E-03  (-0.3680494E-03)
 number of electron       8.0000000 magnetization 
 augmentation part       -0.5131863 magnetization 

 Broyden mixing:
  rms(total) = 0.15305E-01    rms(broyden)= 0.15302E-01
  rms(prec ) = 0.43071E-01
  weight for this iteration     100.00

 eigenvalues of (default mixing * dielectric matrix)
  average eigenvalue GAMMA=   1.5887
  0.9787  2.1987

 Free energy of the ion-electron system (eV)
  ---------------------------------------------------
  alpha Z        PSCENC =         8.24390778
  Ewald energy   TEWEN  =      -401.39972460
  -Hartree energ DENC   =      -137.51639632
  -exchange      EXHF   =         0.00000000
  -V(xc)+E(xc)   XCENC  =        34.20001209
  PAW double counting   =       459.16953891     -469.63900036
  entropy T*S    EENTRO =         0.00337855
  eigenvalues    EBANDS =       -79.03080634
  atomic energy  EATOM  =       579.04554086
  Solvation  Ediel_sol  =         0.00000000
  ---------------------------------------------------
  free energy    TOTEN  =        -6.92354943 eV

  energy without entropy =       -6.92692797  energy(sigma->0) =       -6.92467561


--------------------------------------------------------------------------------------------------------




--------------------------------------- Iteration      1(   8)  ---------------------------------------


    POTLOK:  cpu time    0.0399: real time    0.0402
    SETDIJ:  cpu time    0.0392: real time    0.0392
    EDDIAG:  cpu time    0.0724: real time    0.0725
  RMM-DIIS:  cpu time    0.3534: real time    0.3538
    ORTHCH:  cpu time    0.0021: real time    0.0021
       DOS:  cpu time    0.0007: real time    0.0005
    CHARGE:  cpu time    0.0969: real time    0.0972
    MIXING:  cpu time    0.0010: real time    0.0010
    --------------------------------------------
      LOOP:  cpu time    0.6055: real time    0.6065

 eigenvalue-minimisations  :   896
 total energy-change (2. order) : 0.1263984E-03  (-0.4082159E-03)
 number of electron       8.0000000 magnetization 
 augmentation part       -0.5131334 magnetization 

 Broyden mixing:
  rms(total) = 0.61598E-02    rms(broyden)= 0.61589E-02
  rms(prec ) = 0.19185E-01
  weight for this iteration     100.00

 eigenvalues of (default mixing * dielectric matrix)
  average eigenvalue GAMMA=   1.6278
  2.8014  1.0410  1.0410

 Free energy of the ion-electron system (eV)
  ---------------------------------------------------
  alpha Z        PSCENC =         8.24390778
  Ewald energy   TEWEN  =      -401.39972460
  -Hartree energ DENC   =      -138.36682994
  -exchange      EXHF   =         0.00000000
  -V(xc)+E(xc)   XCENC  =        34.26917228
  PAW double counting   =       465.36532424     -475.88934774
  entropy T*S    EENTRO =         0.00333547
  eigenvalues    EBANDS =       -78.19480138
  atomic energy  EATOM  =       579.04554086
  Solvation  Ediel_sol  =         0.00000000
  ---------------------------------------------------
  free energy    TOTEN  =        -6.92342303 eV

  energy without entropy =       -6.92675849  energy(sigma->0) =       -6.92453485


--------------------------------------------------------------------------------------------------------




--------------------------------------- Iteration      1(   9)  ---------------------------------------


    POTLOK:  cpu time    0.0391: real time    0.0394
    SETDIJ:  cpu time    0.0394: real time    0.0393
    EDDIAG:  cpu time    0.0721: real time    0.0724
  RMM-DIIS:  cpu time    0.3547: real time    0.3551
    ORTHCH:  cpu time    0.0021: real time    0.0021
       DOS:  cpu time    0.0007: real time    0.0005
    CHARGE:  cpu time    0.0967: real time    0.0970
    MIXING:  cpu time    0.0010: real time    0.0010
    --------------------------------------------
      LOOP:  cpu time    0.6058: real time    0.6068

 eigenvalue-minimisations  :   896
 total energy-change (2. order) : 0.1452345E-03  (-0.1869756E-04)
 number of electron       8.0000000 magnetization 
 augmentation part       -0.5130565 magnetization 

 Broyden mixing:
  rms(total) = 0.20036E-02    rms(broyden)= 0.20035E-02
  rms(prec ) = 0.60600E-02
  weight for this iteration     100.00

 eigenvalues of (default mixing * dielectric matrix)
  average eigenvalue GAMMA=   1.6757
  2.7401  1.0123  1.0123  1.9380

 Free energy of the ion-electron system (eV)
  ---------------------------------------------------
  alpha Z        PSCENC =         8.24390778
  Ewald energy   TEWEN  =      -401.39972460
  -Hartree energ DENC   =      -138.18549069
  -exchange      EXHF   =         0.00000000
  -V(xc)+E(xc)   XCENC  =        34.24999061
  PAW double counting   =       464.23103141     -474.74620971
  entropy T*S    EENTRO =         0.00334808
  eigenvalues    EBANDS =       -78.36567153
  atomic energy  EATOM  =       579.04554086
  Solvation  Ediel_sol  =         0.00000000
  ---------------------------------------------------
  free energy    TOTEN  =        -6.92327779 eV

  energy without entropy =       -6.92662587  energy(sigma->0) =       -6.92439382


--------------------------------------------------------------------------------------------------------




--------------------------------------- Iteration      1(  10)  ---------------------------------------


    POTLOK:  cpu time    0.0394: real time    0.0396
    SETDIJ:  cpu time    0.0395: real time    0.0396
    EDDIAG:  cpu time    0.0723: real time    0.0724
  RMM-DIIS:  cpu time    0.3535: real time    0.3539
    ORTHCH:  cpu time    0.0021: real time    0.0021
       DOS:  cpu time    0.0007: real time    0.0005
    CHARGE:  cpu time    0.0968: real time    0.0970
    MIXING:  cpu time    0.0012: real time    0.0012
    --------------------------------------------
      LOOP:  cpu time    0.6054: real time    0.6063

 eigenvalue-minimisations  :   896
 total energy-change (2. order) : 0.2866458E-04  (-0.7299131E-05)
 number of electron       8.0000000 magnetization 
 augmentation part       -0.5130162 magnetization 

 Broyden mixing:
  rms(total) = 0.43201E-03    rms(broyden)= 0.43197E-03
  rms(prec ) = 0.14784E-02
  weight for this iteration     100.00

 eigenvalues of (default mixing * dielectric matrix)
  average eigenvalue GAMMA=   1.6622
  2.4813  2.4813  0.9166  1.2158  1.2158

 Free energy of the ion-electron system (eV)
  ---------------------------------------------------
  alpha Z        PSCENC =         8.24390778
  Ewald energy   TEWEN  =      -401.39972460
  -Hartree energ DENC   =      -138.09762681
  -exchange      EXHF   =         0.00000000
  -V(xc)+E(xc)   XCENC  =        34.24723623
  PAW double counting   =       463.70247546     -474.21377458
  entropy T*S    EENTRO =         0.00335456
  eigenvalues    EBANDS =       -78.45463803
  atomic energy  EATOM  =       579.04554086
  Solvation  Ediel_sol  =         0.00000000
  ---------------------------------------------------
  free energy    TOTEN  =        -6.92324913 eV

  energy without entropy =       -6.92660369  energy(sigma->0) =       -6.92436731


--------------------------------------------------------------------------------------------------------




--------------------------------------- Iteration      1(  11)  ---------------------------------------


    POTLOK:  cpu time    0.0395: real time    0.0396
    SETDIJ:  cpu time    0.0392: real time    0.0394
    EDDIAG:  cpu time    0.0722: real time    0.0723
  RMM-DIIS:  cpu time    0.3842: real time    0.3846
    ORTHCH:  cpu time    0.0021: real time    0.0021
       DOS:  cpu time    0.0006: real time    0.0005
    CHARGE:  cpu time    0.0964: real time    0.0966
    MIXING:  cpu time    0.0009: real time    0.0009
    --------------------------------------------
      LOOP:  cpu time    0.6351: real time    0.6361

 eigenvalue-minimisations  :   997
 total energy-change (2. order) :-0.2258176E-05  (-0.5283835E-06)
 number of electron       8.0000000 magnetization 
 augmentation part       -0.5130094 magnetization 

 Broyden mixing:
  rms(total) = 0.28719E-03    rms(broyden)= 0.28715E-03
  rms(prec ) = 0.10182E-02
  weight for this iteration     100.00

 eigenvalues of (default mixing * dielectric matrix)
  average eigenvalue GAMMA=   1.8107
  3.2899  2.6782  1.7131  0.9431  1.1199  1.1199

 Free energy of the ion-electron system (eV)
  ---------------------------------------------------
  alpha Z        PSCENC =         8.24390778
  Ewald energy   TEWEN  =      -401.39972460
  -Hartree energ DENC   =      -138.10432126
  -exchange      EXHF   =         0.00000000
  -V(xc)+E(xc)   XCENC  =        34.24879018
  PAW double counting   =       463.70025473     -474.21145822
  entropy T*S    EENTRO =         0.00335396
  eigenvalues    EBANDS =       -78.44959481
  atomic energy  EATOM  =       579.04554086
  Solvation  Ediel_sol  =         0.00000000
  ---------------------------------------------------
  free energy    TOTEN  =        -6.92325139 eV

  energy without entropy =       -6.92660535  energy(sigma->0) =       -6.92436937


--------------------------------------------------------------------------------------------------------




--------------------------------------- Iteration      1(  12)  ---------------------------------------


    POTLOK:  cpu time    0.0396: real time    0.0398
    SETDIJ:  cpu time    0.0392: real time    0.0393
    EDDIAG:  cpu time    0.0724: real time    0.0724
  RMM-DIIS:  cpu time    0.3509: real time    0.3515
    ORTHCH:  cpu time    0.0021: real time    0.0021
       DOS:  cpu time    0.0006: real time    0.0005
    CHARGE:  cpu time    0.0969: real time    0.0972
    MIXING:  cpu time    0.0010: real time    0.0010
    --------------------------------------------
      LOOP:  cpu time    0.6028: real time    0.6038

 eigenvalue-minimisations  :   896
 total energy-change (2. order) :-0.2479972E-05  (-0.2334594E-06)
 number of electron       8.0000000 magnetization 
 augmentation part       -0.5130115 magnetization 

 Broyden mixing:
  rms(total) = 0.68345E-04    rms(broyden)= 0.68196E-04
  rms(prec ) = 0.20903E-03
  weight for this iteration     100.00

 eigenvalues of (default mixing * dielectric matrix)
  average eigenvalue GAMMA=   1.6912
  3.1894  2.5542  1.5219  1.5219  0.9672  0.9672  1.1167

 Free energy of the ion-electron system (eV)
  ---------------------------------------------------
  alpha Z        PSCENC =         8.24390778
  Ewald energy   TEWEN  =      -401.39972460
  -Hartree energ DENC   =      -138.12126126
  -exchange      EXHF   =         0.00000000
  -V(xc)+E(xc)   XCENC  =        34.25027918
  PAW double counting   =       463.76254706     -474.27424689
  entropy T*S    EENTRO =         0.00335290
  eigenvalues    EBANDS =       -78.43364891
  atomic energy  EATOM  =       579.04554086
  Solvation  Ediel_sol  =         0.00000000
  ---------------------------------------------------
  free energy    TOTEN  =        -6.92325387 eV

  energy without entropy =       -6.92660677  energy(sigma->0) =       -6.92437150


--------------------------------------------------------------------------------------------------------




--------------------------------------- Iteration      1(  13)  ---------------------------------------


    POTLOK:  cpu time    0.0393: real time    0.0395
    SETDIJ:  cpu time    0.0397: real time    0.0397
    EDDIAG:  cpu time    0.0726: real time    0.0727
  RMM-DIIS:  cpu time    0.2838: real time    0.2842
    ORTHCH:  cpu time    0.0022: real time    0.0022
       DOS:  cpu time    0.0007: real time    0.0005
    CHARGE:  cpu time    0.0970: real time    0.0972
    MIXING:  cpu time    0.0010: real time    0.0010
    --------------------------------------------
      LOOP:  cpu time    0.5362: real time    0.5371

 eigenvalue-minimisations  :   672
 total energy-change (2. order) : 0.7120846E-06  (-0.6366431E-08)
 number of electron       8.0000000 magnetization 
 augmentation part       -0.5130108 magnetization 

 Broyden mixing:
  rms(total) = 0.13825E-04    rms(broyden)= 0.13092E-04
  rms(prec ) = 0.40096E-04
  weight for this iteration     100.00

 eigenvalues of (default mixing * dielectric matrix)
  average eigenvalue GAMMA=   1.7793
  3.0685  3.0685  2.4507  1.6055  1.1647  1.0364  0.9120  0.9283

 Free energy of the ion-electron system (eV)
  ---------------------------------------------------
  alpha Z        PSCENC =         8.24390778
  Ewald energy   TEWEN  =      -401.39972460
  -Hartree energ DENC   =      -138.11918139
  -exchange      EXHF   =         0.00000000
  -V(xc)+E(xc)   XCENC  =        34.24990466
  PAW double counting   =       463.76042451     -474.27213196
  entropy T*S    EENTRO =         0.00335309
  eigenvalues    EBANDS =       -78.43534610
  atomic energy  EATOM  =       579.04554086
  Solvation  Ediel_sol  =         0.00000000
  ---------------------------------------------------
  free energy    TOTEN  =        -6.92325315 eV

  energy without entropy =       -6.92660624  energy(sigma->0) =       -6.92437085


--------------------------------------------------------------------------------------------------------




--------------------------------------- Iteration      1(  14)  ---------------------------------------


    POTLOK:  cpu time    0.0393: real time    0.0396
    SETDIJ:  cpu time    0.0392: real time    0.0393
    EDDIAG:  cpu time    0.0722: real time    0.0723
  RMM-DIIS:  cpu time    0.2834: real time    0.2838
    ORTHCH:  cpu time    0.0020: real time    0.0020
       DOS:  cpu time    0.0005: real time    0.0005
    --------------------------------------------
      LOOP:  cpu time    0.4367: real time    0.4374

 eigenvalue-minimisations  :   666
 total energy-change (2. order) :-0.1384876E-07  (-0.1702489E-08)
 number of electron       8.0000000 magnetization 
 augmentation part       -0.5130108 magnetization 

 Free energy of the ion-electron system (eV)
  ---------------------------------------------------
  alpha Z        PSCENC =         8.24390778
  Ewald energy   TEWEN  =      -401.39972460
  -Hartree energ DENC   =      -138.11882100
  -exchange      EXHF   =         0.00000000
  -V(xc)+E(xc)   XCENC  =        34.24988521
  PAW double counting   =       463.75821823     -474.26990555
  entropy T*S    EENTRO =         0.00335309
  eigenvalues    EBANDS =       -78.43570718
  atomic energy  EATOM  =       579.04554086
  Solvation  Ediel_sol  =         0.00000000
  ---------------------------------------------------
  free energy    TOTEN  =        -6.92325317 eV

  energy without entropy =       -6.92660625  energy(sigma->0) =       -6.92437086


--------------------------------------------------------------------------------------------------------




 average (electrostatic) potential at core
  the test charge radii are     0.8078
  (the norm of the test charge is              1.0000)
       1-119.0855
 
 
 
 E-fermi :  -5.5630     XC(G=0):  -7.0959     alpha+bet : -4.6652


 k-point     1 :       0.0000    0.0000    0.0000
  band No.  band energies     occupation 
      1     -21.0487      2.00000
      2      -5.5802      1.28656
      3      -5.5802      1.28652
      4      -5.5802      1.28652
      5       3.9556      0.00000
      6      11.2516      0.00000
      7      11.2516      0.00000
      8      11.2516      0.00000

 k-point     2 :       0.0909   -0.0000   -0.0000
  band No.  band energies     occupation 
      1     -21.0325      2.00000
      2      -5.7016      2.06451
      3      -5.5923      1.47361
      4      -5.5923      1.47357
      5       4.1890      0.00000
      6      10.8965      0.00000
      7      11.3491      0.00000
      8      11.3491      0.00000

 k-point     3 :       0.1818   -0.0000   -0.0000
  band No.  band energies     occupation 
      1     -20.9886      2.00000
      2      -6.0102      2.00000
      3      -5.6245      1.85347
      4      -5.6245      1.85345
      5       4.8141      0.00000
      6      10.1934      0.00000
      7      11.4909      0.00000
      8      11.4909      0.00000

 k-point     4 :       0.2727   -0.0000   -0.0000
  band No.  band energies     occupation 
      1     -20.9303      2.00000
      2      -6.3834      2.00000
      3      -5.6660      2.05594
      4      -5.6660      2.05594
      5       5.6366      0.00000
      6       9.5621      0.00000
      7      11.3422      0.00000
      8      11.3422      0.00000

 k-point     5 :       0.3636   -0.0000   -0.0000
  band No.  band energies     occupation 
      1     -20.8756      2.00000
      2      -6.7022      2.00000
      3      -5.7034      2.06320
      4      -5.7034      2.06321
      5       6.3845      0.00000
      6       9.1825      0.00000
      7      11.0444      0.00000
      8      11.0444      0.00000

 k-point     6 :       0.4545    0.0000   -0.0000
  band No.  band energies     occupation 
      1     -20.8426      2.00000
      2      -6.8828      2.00000
      3      -5.7254      2.04389
      4      -5.7254      2.04389
      5       6.7958      0.00000
      6       9.0689      0.00000
      7      10.8542      0.00000
      8      10.8542      0.00000

 k-point     7 :       0.0909    0.0909    0.0000
  band No.  band energies     occupation 
      1     -21.0271      2.00000
      2      -5.7012      2.06480
      3      -5.6164      1.77663
      4      -5.6164      1.77661
      5       4.2653      0.00000
      6      10.7734      0.00000
      7      11.4047      0.00000
      8      11.4047      0.00000

 k-point     8 :       0.1818    0.0909    0.0000
  band No.  band energies     occupation 
      1     -20.9925      2.00000
      2      -5.9302      2.00000
      3      -5.6585      2.03963
      4      -5.6404      1.96602
      5       4.7566      0.00000
      6      10.2290      0.00000
      7      11.5016      0.00000
      8      11.5802      0.00000

 k-point     9 :       0.2727    0.0909   -0.0000
  band No.  band energies     occupation 
      1     -20.9390      2.00000
      2      -6.2700      2.00000
      3      -5.7047      2.06228
      4      -5.6798      2.06985
      5       5.5186      0.00000
      6       9.6386      0.00000
      7      11.1306      0.00000
      8      11.5790      0.00000

 k-point    10 :       0.3636    0.0909   -0.0000
  band No.  band energies     occupation 
      1     -20.8830      2.00000
      2      -6.5941      2.00000
      3      -5.7403      2.03097
      4      -5.7323      2.03766
      5       6.3217      0.00000
      6       9.1834      0.00000
      7      10.7370      0.00000
      8      11.3355      0.00000

 k-point    11 :       0.4545    0.0909   -0.0000
  band No.  band energies     occupation 
      1     -20.8427      2.00000
      2      -6.8113      2.00000
      3      -5.7810      2.00856
      4      -5.7546      2.02076
      5       6.8930      0.00000
      6       8.9257      0.00000
      7      10.5928      0.00000
      8      11.0900      0.00000

 k-point    12 :      -0.4545    0.0909    0.0000
  band No.  band energies     occupation 
      1     -20.8316      2.00000
      2      -6.8682      2.00000
      3      -5.8103      2.00261
      4      -5.7435      2.02848
      5       7.0508      0.00000
      6       8.8754      0.00000
      7      10.5838      0.00000
      8      10.9929      0.00000

 k-point    13 :      -0.3636    0.0909    0.0000
  band No.  band energies     occupation 
      1     -20.8537      2.00000
      2      -6.7522      2.00000
      3      -5.8106      2.00258
      4      -5.7103      2.05767
      5       6.7578      0.00000
      6       9.0222      0.00000
      7      10.6196      0.00000
      8      11.0953      0.00000

 k-point    14 :      -0.2727    0.0909    0.0000
  band No.  band energies     occupation 
      1     -20.9012      2.00000
      2      -6.4920      2.00000
      3      -5.7803      2.00878
      4      -5.6650      2.05419
      5       6.0791      0.00000
      6       9.3620      0.00000
      7      10.8390      0.00000
      8      11.3877      0.00000

 k-point    15 :      -0.1818    0.0909    0.0000
  band No.  band energies     occupation 
      1     -20.9584      2.00000
      2      -6.1574      2.00000
      3      -5.7255      2.04377
      4      -5.6217      1.82802
      5       5.2518      0.00000
      6       9.8772      0.00000
      7      11.1954      0.00000
      8      11.6977      0.00000

 k-point    16 :      -0.0909    0.0909    0.0000
  band No.  band energies     occupation 
      1     -21.0071      2.00000
      2      -5.8570      2.00026
      3      -5.6553      2.03045
      4      -5.5943      1.50291
      5       4.5530      0.00000
      6      10.4715      0.00000
      7      11.3901      0.00000
      8      11.5279      0.00000

 k-point    17 :       0.1818    0.1818    0.0000
  band No.  band energies     occupation 
      1     -20.9689      2.00000
      2      -5.9981      2.00000
      3      -5.7121      2.05607
      4      -5.7121      2.05607
      5       5.0731      0.00000
      6       9.8555      0.00000
      7      11.5715      0.00000
      8      11.8637      0.00000

 k-point    18 :       0.2727    0.1818   -0.0000
  band No.  band energies     occupation 
      1     -20.9247      2.00000
      2      -6.2323      2.00000
      3      -5.7678      2.01365
      4      -5.7660      2.01448
      5       5.6748      0.00000
      6       9.4058      0.00000
      7      10.7823      0.00000
      8      12.0702      0.00000

 k-point    19 :       0.3636    0.1818    0.0000
  band No.  band energies     occupation 
      1     -20.8736      2.00000
      2      -6.4967      2.00000
      3      -5.8400      2.00064
      4      -5.8080      2.00288
      5       6.4121      0.00000
      6       9.0428      0.00000
      7      10.2058      0.00000
      8      11.9522      0.00000

 k-point    20 :       0.4545    0.1818    0.0000
  band No.  band energies     occupation 
      1     -20.8317      2.00000
      2      -6.6938      2.00000
      3      -5.9283      2.00000
      4      -5.8207      2.00163
      5       7.1002      0.00000
      6       8.6942      0.00000
      7      10.0606      0.00000
      8      11.6860      0.00000

 k-point    21 :      -0.4545    0.1818    0.0000
  band No.  band energies     occupation 
      1     -20.8130      2.00000
      2      -6.7711      2.00000
      3      -6.0017      2.00000
      4      -5.8024      2.00367
      5       7.5660      0.00000
      6       8.4213      0.00000
      7      10.1223      0.00000
      8      11.4879      0.00000

 k-point    22 :      -0.3636    0.1818    0.0000
  band No.  band energies     occupation 
      1     -20.8239      2.00000
      2      -6.7150      2.00000
      3      -6.0306      2.00000
      4      -5.7584      2.01851
      5       7.4336      0.00000
      6       8.6611      0.00000
      7       9.9723      0.00000
      8      11.4563      0.00000

 k-point    23 :      -0.2727    0.1818    0.0000
  band No.  band energies     occupation 
      1     -20.8606      2.00000
      2      -6.5526      2.00000
      3      -5.9924      2.00000
      4      -5.7020      2.06427
      5       6.7956      0.00000
      6       9.2096      0.00000
      7       9.9106      0.00000
      8      11.6237      0.00000

 k-point    24 :      -0.1818    0.1818    0.0000
  band No.  band energies     occupation 
      1     -20.9108      2.00000
      2      -6.3463      2.00000
      3      -5.8788      2.00008
      4      -5.6508      2.01493
      5       5.9774      0.00000
      6       9.5565      0.00000
      7      10.4682      0.00000
      8      11.9528      0.00000

 k-point    25 :       0.2727    0.2727    0.0000
  band No.  band energies     occupation 
      1     -20.8917      2.00000
      2      -6.3386      2.00000
      3      -5.8345      2.00084
      4      -5.8345      2.00084
      5       6.0178      0.00000
      6       9.0071      0.00000
      7      10.4490      0.00000
      8      12.6269      0.00000

 k-point    26 :       0.3636    0.2727    0.0000
  band No.  band energies     occupation 
      1     -20.8501      2.00000
      2      -6.5082      2.00000
      3      -5.9128      2.00001
      4      -5.8839      2.00006
      5       6.4714      0.00000
      6       8.7212      0.00000
      7      10.0912      0.00000
      8      12.8244      0.00000

 k-point    27 :       0.4545    0.2727   -0.0000
  band No.  band energies     occupation 
      1     -20.8130      2.00000
      2      -6.6303      2.00000
      3      -6.0395      2.00000
      4      -5.9014      2.00002
      5       6.9700      0.00000
      6       8.5848      0.00000
      7       9.8850      0.00000
      8      12.5996      0.00000

 k-point    28 :      -0.4545    0.2727    0.0000
  band No.  band energies     occupation 
      1     -20.7926      2.00000
      2      -6.6543      2.00000
      3      -6.1885      2.00000
      4      -5.8818      2.00006
      5       7.4935      0.00000
      6       8.4303      0.00000
      7       9.8800      0.00000
      8      12.2879      0.00000

 k-point    29 :      -0.3636    0.2727    0.0000
  band No.  band energies     occupation 
      1     -20.7957      2.00000
      2      -6.5943      2.00000
      3      -6.2890      2.00000
      4      -5.8311      2.00099
      5       8.0354      0.00000
      6       8.2165      0.00000
      7       9.6961      0.00000
      8      12.0382      0.00000

 k-point    30 :      -0.2727    0.2727    0.0000
  band No.  band energies     occupation 
      1     -20.8212      2.00000
      2      -6.5619      2.00000
      3      -6.2116      2.00000
      4      -5.7642      2.01539
      5       7.5784      0.00000
      6       8.8744      0.00000
      7       9.3935      0.00000
      8      11.8507      0.00000

 k-point    31 :       0.3636    0.3636    0.0000
  band No.  band energies     occupation 
      1     -20.8198      2.00000
      2      -6.6142      2.00000
      3      -5.9441      2.00000
      4      -5.9441      2.00000
      5       6.5097      0.00000
      6       8.3987      0.00000
      7      10.2716      0.00000
      8      13.6869      0.00000

 k-point    32 :       0.4545    0.3636   -0.0000
  band No.  band energies     occupation 
      1     -20.7924      2.00000
      2      -6.6920      2.00000
      3      -6.0274      2.00000
      4      -5.9707      2.00000
      5       6.6546      0.00000
      6       8.2863      0.00000
      7      10.3590      0.00000
      8      13.7679      0.00000

 k-point    33 :      -0.4545    0.3636    0.0000
  band No.  band energies     occupation 
      1     -20.7768      2.00000
      2      -6.6714      2.00000
      3      -6.1873      2.00000
      4      -5.9561      2.00000
      5       6.9695      0.00000
      6       8.3790      0.00000
      7      10.2646      0.00000
      8      13.3057      0.00000

 k-point    34 :      -0.3636    0.3636    0.0000
  band No.  band energies     occupation 
      1     -20.7781      2.00000
      2      -6.5469      2.00000
      3      -6.3772      2.00000
      4      -5.9045      2.00002
      5       7.4537      0.00000
      6       8.4815      0.00000
      7       9.9494      0.00000
      8      12.6984      0.00000

 k-point    35 :       0.4545    0.4545   -0.0000
  band No.  band energies     occupation 
      1     -20.7767      2.00000
      2      -6.7643      2.00000
      3      -6.0080      2.00000
      4      -6.0080      2.00000
      5       6.4910      0.00000
      6       8.0854      0.00000
      7      10.7644      0.00000
      8      15.0274      0.00000

 k-point    36 :      -0.4545    0.4545    0.0000
  band No.  band energies     occupation 
      1     -20.7708      2.00000
      2      -6.7554      2.00000
      3      -6.0706      2.00000
      4      -6.0027      2.00000
      5       6.5994      0.00000
      6       8.1383      0.00000
      7      10.7226      0.00000
      8      14.3855      0.00000

 k-point    37 :       0.2727    0.1818    0.0909
  band No.  band energies     occupation 
      1     -20.9531      2.00000
      2      -6.1299      2.00000
      3      -5.7580      2.01870
      4      -5.6601      2.04370
      5       5.3163      0.00000
      6       9.7814      0.00000
      7      11.0886      0.00000
      8      11.9668      0.00000

 k-point    38 :       0.3636    0.1818    0.0909
  band No.  band energies     occupation 
      1     -20.9007      2.00000
      2      -6.3988      2.00000
      3      -5.8513      2.00035
      4      -5.6983      2.06666
      5       6.0886      0.00000
      6       9.3648      0.00000
      7      10.4460      0.00000
      8      11.8357      0.00000

 k-point    39 :       0.4545    0.1818    0.0909
  band No.  band energies     occupation 
      1     -20.8518      2.00000
      2      -6.6426      2.00000
      3      -5.9118      2.00001
      4      -5.7472      2.02575
      5       6.8536      0.00000
      6       8.9644      0.00000
      7      10.1384      0.00000
      8      11.5234      0.00000

 k-point    40 :      -0.4545    0.1818    0.0909
  band No.  band energies     occupation 
      1     -20.8223      2.00000
      2      -6.7843      2.00000
      3      -5.9394      2.00000
      4      -5.7819      2.00828
      5       7.3639      0.00000
      6       8.6096      0.00000
      7      10.2002      0.00000
      8      11.3339      0.00000

 k-point    41 :       0.3636    0.2727    0.0909
  band No.  band energies     occupation 
      1     -20.8818      2.00000
      2      -6.4045      2.00000
      3      -5.8891      2.00004
      4      -5.7920      2.00562
      5       6.2444      0.00000
      6       9.0769      0.00000
      7      10.1878      0.00000
      8      12.4580      0.00000

 k-point    42 :       0.4545    0.2727    0.0909
  band No.  band energies     occupation 
      1     -20.8376      2.00000
      2      -6.5681      2.00000
      3      -6.0002      2.00000
      4      -5.8376      2.00072
      5       6.8974      0.00000
      6       8.8646      0.00000
      7       9.7337      0.00000
      8      12.2663      0.00000

 k-point    43 :      -0.4545    0.2727    0.0909
  band No.  band energies     occupation 
      1     -20.8066      2.00000
      2      -6.6666      2.00000
      3      -6.0971      2.00000
      4      -5.8656      2.00016
      5       7.5060      0.00000
      6       8.5308      0.00000
      7       9.7487      0.00000
      8      11.9703      0.00000

 k-point    44 :      -0.3636    0.2727    0.0909
  band No.  band energies     occupation 
      1     -20.7989      2.00000
      2      -6.6758      2.00000
      3      -6.1609      2.00000
      4      -5.8510      2.00036
      5       8.0730      0.00000
      6       8.1044      0.00000
      7       9.7999      0.00000
      8      11.7996      0.00000

 k-point    45 :      -0.2727    0.2727    0.0909
  band No.  band energies     occupation 
      1     -20.8172      2.00000
      2      -6.6114      2.00000
      3      -6.1486      2.00000
      4      -5.8019      2.00375
      5       7.5564      0.00000
      6       8.7423      0.00000
      7       9.5170      0.00000
      8      11.8454      0.00000

 k-point    46 :      -0.1818    0.2727    0.0909
  band No.  band energies     occupation 
      1     -20.8553      2.00000
      2      -6.5135      2.00000
      3      -6.0319      2.00000
      4      -5.7420      2.02963
      5       6.8414      0.00000
      6       9.2397      0.00000
[...]
      6       8.4277      0.00000
      7       9.8768      0.00000
      8      12.2850      0.00000

 k-point    29 :      -0.3636    0.2727    0.0000
  band No.  band energies     occupation 
      1     -20.7975      2.00000
      2      -6.5956      2.00000
      3      -6.2905      2.00000
      4      -5.8330      2.00100
      5       8.0328      0.00000
      6       8.2139      0.00000
      7       9.6930      0.00000
      8      12.0354      0.00000

 k-point    30 :      -0.2727    0.2727    0.0000
  band No.  band energies     occupation 
      1     -20.8229      2.00000
      2      -6.5632      2.00000
      3      -6.2132      2.00000
      4      -5.7662      2.01547
      5       7.5751      0.00000
      6       8.8722      0.00000
      7       9.3906      0.00000
      8      11.8479      0.00000

 k-point    31 :       0.3636    0.3636    0.0000
  band No.  band energies     occupation 
      1     -20.8216      2.00000
      2      -6.6155      2.00000
      3      -5.9460      2.00000
      4      -5.9460      2.00000
      5       6.5074      0.00000
      6       8.3969      0.00000
      7      10.2679      0.00000
      8      13.6833      0.00000

 k-point    32 :       0.4545    0.3636   -0.0000
  band No.  band energies     occupation 
      1     -20.7942      2.00000
      2      -6.6933      2.00000
      3      -6.0292      2.00000
      4      -5.9726      2.00000
      5       6.6526      0.00000
      6       8.2844      0.00000
      7      10.3550      0.00000
      8      13.7620      0.00000

 k-point    33 :      -0.4545    0.3636    0.0000
  band No.  band energies     occupation 
      1     -20.7786      2.00000
      2      -6.6727      2.00000
      3      -6.1890      2.00000
      4      -5.9580      2.00000
      5       6.9676      0.00000
      6       8.3769      0.00000
      7      10.2608      0.00000
      8      13.3024      0.00000

 k-point    34 :      -0.3636    0.3636    0.0000
  band No.  band energies     occupation 
      1     -20.7799      2.00000
      2      -6.5482      2.00000
      3      -6.3787      2.00000
      4      -5.9065      2.00002
      5       7.4517      0.00000
      6       8.4790      0.00000
      7       9.9459      0.00000
      8      12.6953      0.00000

 k-point    35 :       0.4545    0.4545   -0.0000
  band No.  band energies     occupation 
      1     -20.7785      2.00000
      2      -6.7655      2.00000
      3      -6.0099      2.00000
      4      -6.0099      2.00000
      5       6.4892      0.00000
      6       8.0837      0.00000
      7      10.7599      0.00000
      8      15.0210      0.00000

 k-point    36 :      -0.4545    0.4545    0.0000
  band No.  band energies     occupation 
      1     -20.7726      2.00000
      2      -6.7566      2.00000
      3      -6.0723      2.00000
      4      -6.0045      2.00000
      5       6.5977      0.00000
      6       8.1365      0.00000
      7      10.7182      0.00000
      8      14.3768      0.00000

 k-point    37 :       0.2727    0.1818    0.0909
  band No.  band energies     occupation 
      1     -20.9547      2.00000
      2      -6.1316      2.00000
      3      -5.7601      2.01880
      4      -5.6622      2.04352
      5       5.3133      0.00000
      6       9.7791      0.00000
      7      11.0859      0.00000
      8      11.9625      0.00000

 k-point    38 :       0.3636    0.1818    0.0909
  band No.  band energies     occupation 
      1     -20.9024      2.00000
      2      -6.4002      2.00000
      3      -5.8532      2.00036
      4      -5.7004      2.06673
      5       6.0855      0.00000
      6       9.3624      0.00000
      7      10.4436      0.00000
      8      11.8329      0.00000

 k-point    39 :       0.4545    0.1818    0.0909
  band No.  band energies     occupation 
      1     -20.8535      2.00000
      2      -6.6438      2.00000
      3      -5.9137      2.00001
      4      -5.7492      2.02585
      5       6.8506      0.00000
      6       8.9617      0.00000
      7      10.1360      0.00000
      8      11.5208      0.00000

 k-point    40 :      -0.4545    0.1818    0.0909
  band No.  band energies     occupation 
      1     -20.8241      2.00000
      2      -6.7855      2.00000
      3      -5.9413      2.00000
      4      -5.7839      2.00833
      5       7.3613      0.00000
      6       8.6065      0.00000
      7      10.1975      0.00000
      8      11.3313      0.00000

 k-point    41 :       0.3636    0.2727    0.0909
  band No.  band energies     occupation 
      1     -20.8834      2.00000
      2      -6.4060      2.00000
      3      -5.8910      2.00004
      4      -5.7940      2.00566
      5       6.2414      0.00000
      6       9.0748      0.00000
      7      10.1851      0.00000
      8      12.4538      0.00000

 k-point    42 :       0.4545    0.2727    0.0909
  band No.  band energies     occupation 
      1     -20.8394      2.00000
      2      -6.5694      2.00000
      3      -6.0020      2.00000
      4      -5.8396      2.00073
      5       6.8944      0.00000
      6       8.8623      0.00000
      7       9.7311      0.00000
      8      12.2632      0.00000

 k-point    43 :      -0.4545    0.2727    0.0909
  band No.  band energies     occupation 
      1     -20.8083      2.00000
      2      -6.6679      2.00000
      3      -6.0988      2.00000
      4      -5.8676      2.00016
      5       7.5033      0.00000
      6       8.5282      0.00000
      7       9.7459      0.00000
      8      11.9673      0.00000

 k-point    44 :      -0.3636    0.2727    0.0909
  band No.  band energies     occupation 
      1     -20.8007      2.00000
      2      -6.6771      2.00000
      3      -6.1626      2.00000
      4      -5.8530      2.00036
      5       8.0704      0.00000
      6       8.1017      0.00000
      7       9.7970      0.00000
      8      11.7968      0.00000

 k-point    45 :      -0.2727    0.2727    0.0909
  band No.  band energies     occupation 
      1     -20.8190      2.00000
      2      -6.6127      2.00000
      3      -6.1503      2.00000
      4      -5.8039      2.00378
      5       7.5533      0.00000
      6       8.7399      0.00000
      7       9.5143      0.00000
      8      11.8426      0.00000

 k-point    46 :      -0.1818    0.2727    0.0909
  band No.  band energies     occupation 
      1     -20.8570      2.00000
      2      -6.5149      2.00000
      3      -6.0337      2.00000
      4      -5.7440      2.02974
      5       6.8382      0.00000
      6       9.2372      0.00000
      7       9.6129      0.00000
      8      11.9666      0.00000

 k-point    47 :       0.4545    0.3636    0.0909
  band No.  band energies     occupation 
      1     -20.8173      2.00000
      2      -6.6113      2.00000
      3      -6.0081      2.00000
      4      -5.9320      2.00000
      5       6.7593      0.00000
      6       8.5464      0.00000
      7       9.9657      0.00000
      8      13.1154      0.00000

 k-point    48 :      -0.4545    0.3636    0.0909
  band No.  band energies     occupation 
      1     -20.7910      2.00000
      2      -6.6404      2.00000
      3      -6.1438      2.00000
      4      -5.9603      2.00000
      5       7.1133      0.00000
      6       8.5611      0.00000
      7       9.8682      0.00000
      8      12.7527      0.00000

 k-point    49 :      -0.3636    0.3636    0.0909
  band No.  band energies     occupation 
      1     -20.7816      2.00000
      2      -6.5709      2.00000
      3      -6.3171      2.00000
      4      -5.9377      2.00000
      5       7.5285      0.00000
      6       8.5823      0.00000
      7       9.7781      0.00000
      8      12.2719      0.00000

 k-point    50 :      -0.2727    0.3636    0.0909
  band No.  band energies     occupation 
      1     -20.7921      2.00000
      2      -6.5128      2.00000
      3      -6.3715      2.00000
      4      -5.8769      2.00010
      5       7.8941      0.00000
      6       8.5395      0.00000
      7       9.4701      0.00000
      8      12.0591      0.00000

 k-point    51 :      -0.4545    0.4545    0.0909
  band No.  band energies     occupation 
      1     -20.7776      2.00000
      2      -6.7161      2.00000
      3      -6.0762      2.00000
      4      -6.0197      2.00000
      5       6.7400      0.00000
      6       8.2690      0.00000
      7      10.4592      0.00000
      8      13.6261      0.00000

 k-point    52 :      -0.3636    0.4545    0.0909
  band No.  band energies     occupation 
      1     -20.7729      2.00000
      2      -6.6497      2.00000
      3      -6.2113      2.00000
      4      -6.0048      2.00000
      5       7.0471      0.00000
      6       8.4648      0.00000
      7      10.2222      0.00000
      8      12.8378      0.00000

 k-point    53 :      -0.4545    0.3636    0.1818
  band No.  band energies     occupation 
      1     -20.8061      2.00000
      2      -6.5860      2.00000
      3      -6.1697      2.00000
      4      -5.8991      2.00002
      5       7.3932      0.00000
      6       8.9470      0.00000
      7       9.2524      0.00000
      8      12.2820      0.00000

 k-point    54 :      -0.3636    0.3636    0.1818
  band No.  band energies     occupation 
      1     -20.7861      2.00000
      2      -6.5606      2.00000
      3      -6.2901      2.00000
      4      -5.9504      2.00000
      5       7.7066      0.00000
      6       8.7717      0.00000
      7       9.4133      0.00000
      8      11.9670      0.00000

 k-point    55 :      -0.3636    0.4545    0.1818
  band No.  band energies     occupation 
      1     -20.7758      2.00000
      2      -6.5810      2.00000
      3      -6.2485      2.00000
      4      -6.0340      2.00000
      5       7.3223      0.00000
      6       8.7789      0.00000
      7       9.7501      0.00000
      8      12.1666      0.00000

 k-point    56 :      -0.2727    0.4545    0.1818
  band No.  band energies     occupation 
      1     -20.7740      2.00000
      2      -6.4628      2.00000
      3      -6.3963      2.00000
      4      -6.0281      2.00000
      5       7.5528      0.00000
      6       9.0133      0.00000
      7       9.4909      0.00000
      8      11.7533      0.00000


--------------------------------------------------------------------------------------------------------


 soft charge-density along one line, spin component           1
         0         1         2         3         4         5         6         7         8         9
 total charge-density along one line
 
 pseudopotential strength for first ion, spin component:           1
 43.689  -0.123   0.000   0.000  -0.000  -0.000   0.000  -0.000
 -0.123   2.750  -0.000   0.000  -0.000   0.000   0.000  -0.000
  0.000  -0.000   8.412   0.000   0.000   0.580   0.000   0.000
  0.000   0.000   0.000   8.412   0.000   0.000   0.580   0.000
 -0.000  -0.000   0.000   0.000   8.412   0.000   0.000   0.580
 -0.000   0.000   0.580   0.000   0.000  12.173   0.000   0.000
  0.000   0.000   0.000   0.580   0.000   0.000  12.173   0.000
 -0.000  -0.000   0.000   0.000   0.580   0.000   0.000  12.173
 -0.000   0.000   0.000   0.000  -0.000  -0.000  -0.000   0.000
 -0.000   0.000  -0.000   0.000   0.000   0.000  -0.000  -0.000
  0.000  -0.000   0.000   0.000  -0.000  -0.000  -0.000   0.000
 -0.000   0.000   0.000   0.000  -0.000  -0.000  -0.000   0.000
 -0.000   0.000  -0.000  -0.000   0.000   0.000   0.000  -0.000
 -0.000  -0.000   0.000   0.000  -0.000   0.000   0.000  -0.000
 -0.000  -0.000  -0.000   0.000   0.000  -0.000   0.000   0.000
  0.000   0.000   0.000   0.000  -0.000   0.000   0.000  -0.000
 -0.000  -0.000   0.000   0.000  -0.000   0.000   0.000  -0.000
 -0.000  -0.000  -0.000  -0.000   0.000  -0.000  -0.000   0.000
 total augmentation occupancy for first ion, spin component:           1
  1.982   0.018   0.000   0.000   0.000   0.000   0.000   0.000  -0.000  -0.000  -0.000   0.000  -0.000  -0.000  -0.000  -0.000
  0.018   0.000   0.000   0.000   0.000   0.000   0.000   0.000   0.000  -0.000  -0.000  -0.000  -0.000   0.000  -0.000  -0.000
  0.000   0.000   2.001  -0.000  -0.000   0.007  -0.000  -0.000   0.000   0.000   0.000   0.000   0.000   0.000   0.000   0.000
  0.000   0.000  -0.000   2.001   0.000  -0.000   0.007   0.000   0.000   0.000   0.000   0.000   0.000   0.000   0.000   0.000
  0.000   0.000  -0.000   0.000   2.001  -0.000   0.000   0.007   0.000   0.000   0.000   0.000   0.000   0.000   0.000   0.000
  0.000   0.000   0.007  -0.000   0.000   0.000  -0.000  -0.000   0.000   0.000   0.000   0.000   0.000   0.000   0.000   0.000
  0.000   0.000  -0.000   0.007   0.000  -0.000   0.000   0.000   0.000   0.000   0.000   0.000   0.000   0.000   0.000   0.000
  0.000   0.000  -0.000   0.000   0.007  -0.000   0.000   0.000   0.000   0.000   0.000   0.000   0.000   0.000   0.000   0.000
 -0.000   0.000   0.000   0.000   0.000   0.000   0.000   0.000   0.000   0.000   0.000   0.000   0.000   0.000   0.000   0.000
 -0.000  -0.000   0.000   0.000   0.000   0.000   0.000   0.000   0.000   0.000  -0.000  -0.000   0.000   0.000   0.000  -0.000
 -0.000  -0.000   0.000   0.000   0.000   0.000   0.000   0.000   0.000  -0.000   0.000   0.000  -0.000   0.000  -0.000   0.000
  0.000  -0.000   0.000   0.000   0.000   0.000   0.000   0.000   0.000   0.000   0.000   0.000  -0.000   0.000   0.000   0.000
 -0.000  -0.000   0.000   0.000   0.000   0.000   0.000   0.000  -0.000   0.000  -0.000   0.000   0.000  -0.000   0.000  -0.000
  0.000   0.000   0.000   0.000   0.000   0.000   0.000   0.000   0.000   0.000   0.000   0.000  -0.000   0.000   0.000   0.000
 -0.000  -0.000   0.000   0.000   0.000   0.000   0.000   0.000   0.000   0.000  -0.000   0.000   0.000   0.000   0.000  -0.000
 -0.000  -0.000   0.000   0.000   0.000   0.000   0.000   0.000   0.000  -0.000   0.000   0.000  -0.000   0.000  -0.000   0.000
  0.000  -0.000   0.000   0.000   0.000   0.000   0.000   0.000   0.000   0.000   0.000   0.000  -0.000   0.000   0.000   0.000
 -0.000  -0.000   0.000   0.000   0.000   0.000   0.000   0.000  -0.000   0.000  -0.000  -0.000   0.000  -0.000   0.000  -0.000


------------------------ aborting loop because EDIFF is reached ----------------------------------------


    CHARGE:  cpu time    0.0191: real time    0.0191
    FORLOC:  cpu time    0.0005: real time    0.0005
    FORNL :  cpu time    0.0705: real time    0.0706
    STRESS:  cpu time    1.2290: real time    1.2304
    FORCOR:  cpu time    0.0381: real time    0.0381
    FORHAR:  cpu time    0.0026: real time    0.0026
    MIXING:  cpu time    0.0010: real time    0.0010
    OFIELD:  cpu time    0.0000: real time    0.0000

  FORCE on cell =-STRESS in cart. coord.  units (eV):
  Direction    XX          YY          ZZ          XY          YZ          ZX
  --------------------------------------------------------------------------------------
  Alpha Z     8.24082     8.24082     8.24082
  Ewald    -133.78319  -133.78319  -133.78319     0.00000    -0.00000     0.00000
  Hartree    46.05038    46.05038    46.05038     0.00000    -0.00000     0.00000
  E(xc)     -32.07222   -31.99459   -31.95484     0.03054    -0.00794     0.07336
  Local    -117.89485  -117.89485  -117.89485    -0.00000    -0.00000    -0.00000
  n-local    93.29479    94.08662    94.49633     0.29089    -0.11614     0.75703
  augment    -9.81657    -9.81657    -9.81657    -0.00000    -0.00000    -0.00000
  Kinetic   143.19564   145.66774   146.92832     0.95708    -0.26482     2.32261
  Fock        0.00000     0.00000     0.00000     0.00000     0.00000     0.00000
  -------------------------------------------------------------------------------------
  Total       0.01253     0.01253     0.01253     0.00000    -0.00000     0.00000
  in kB       0.55033     0.55033     0.55033     0.00000    -0.00000     0.00000
  external pressure =        0.55 kB  Pullay stress =        0.00 kB


 VOLUME and BASIS-vectors are now :
 -----------------------------------------------------------------------------
  energy-cutoff  :      600.00
  volume of cell :       36.46
      direct lattice vectors                 reciprocal lattice vectors
     3.722155759  0.000000000  0.000000000     0.268661514 -0.155111797 -0.109680604
     1.861077880  3.223481444 -0.000000000     0.000000000  0.310223594 -0.109680604
     1.861077880  1.074493815  3.039127451    -0.000000000  0.000000000  0.329041811

  length of vectors
     3.722155759  3.722155759  3.722155759     0.329041811  0.329041811  0.329041811


 FORCES acting on ions
    electron-ion (+dipol)            ewald-force                    non-local-force                 convergence-correction
 -----------------------------------------------------------------------------------------------
   0.473E-14 0.600E-15 0.350E-14   0.829E-16 -.207E-16 -.614E-15   0.207E-24 0.000E+00 0.000E+00   -.267E-13 -.333E-14 -.254E-13
 -----------------------------------------------------------------------------------------------
   0.451E-14 0.603E-15 0.354E-14   0.829E-16 -.207E-16 -.614E-15   0.207E-24 0.000E+00 0.000E+00   -.267E-13 -.333E-14 -.254E-13
 
 
 POSITION                                       TOTAL-FORCE (eV/Angst)
 -----------------------------------------------------------------------------------
      0.00000      0.00000      0.00000        -0.000000      0.000000      0.000000
 -----------------------------------------------------------------------------------
    total drift:                               -0.000000     -0.000000     -0.000000


--------------------------------------------------------------------------------------------------------



  FREE ENERGIE OF THE ION-ELECTRON SYSTEM (eV)
  ---------------------------------------------------
  free  energy   TOTEN  =        -6.92325809 eV

  energy  without entropy=       -6.92661601  energy(sigma->0) =       -6.92437740
 
 d Force = 0.0000000E+00[ 0.000E+00, 0.000E+00]  d Energy = 0.4923627E-05-0.492E-05
 d Force = 0.0000000E+00[ 0.000E+00, 0.000E+00]  d Ewald  =-0.5016937E-01 0.502E-01


--------------------------------------------------------------------------------------------------------


    POTLOK:  cpu time    0.0775: real time    0.0776


--------------------------------------------------------------------------------------------------------


 Quasi-Newton relaxation of ions (Broydens 2nd method)
  g(Force)  = 0.000E+00   g(Stress)= 0.454E-05

 retain information from N=  1 steps
 eigenvalues of (default step * inverse Hessian matrix)
  average eigenvalue of G=  30.2180
 eigenvalue spectrum of G is 30.2180


--------------------------------------------------------------------------------------------------------


  
 reached required accuracy - stopping structural energy minimisation
     LOOP+:  cpu time    4.7240: real time    4.7344
    4ORBIT:  cpu time    0.0000: real time    0.0000

 total amount of memory used by VASP MPI-rank0    36823. kBytes
=======================================================================

   base      :      30000. kBytes
   nonl-proj :       2553. kBytes
   fftplans  :       2306. kBytes
   grid      :       1347. kBytes
   one-center:         15. kBytes
   wavefun   :        602. kBytes
 
  
  
 General timing and accounting informations for this job:
 ========================================================
  
                  Total CPU time used (sec):       17.166
                            User time (sec):       14.523
                          System time (sec):        2.643
                         Elapsed time (sec):       14.847
  
                   Maximum memory used (kb):       83136.
                   Average memory used (kb):           0.
  
                          Minor page faults:        24237
                          Major page faults:            0
                 Voluntary context switches:         7675
