Cn_FCC                                  
           1
     3.599697    0.000000    0.000000
     1.799848    3.117429   -0.000000
     1.799848    1.039143    2.939140
   Ar
   1
Direct configuration=     1
   0.00000000  0.00000000  0.00000000
Cn_FCC                                  
           1
     3.603781    0.000000    0.000000
     1.801890    3.120966   -0.000000
     1.801890    1.040322    2.942475
   Ar
   1
Direct configuration=     2
   0.00000000  0.00000000  0.00000000
Cn_FCC                                  
           1
     3.714101    0.000000    0.000000
     1.857050    3.216506   -0.000000
     1.857050    1.072169    3.032551
   Ar
   1
Direct configuration=     3
   0.00000000  0.00000000  0.00000000
Cn_FCC                                  
           1
     3.721691    0.000000    0.000000
     1.860845    3.223079   -0.000000
     1.860845    1.074360    3.038748
   Ar
   1
Direct configuration=     4
   0.00000000  0.00000000  0.00000000
