Cn_FCC                                  
           1
     3.721691    0.000000    0.000000
     1.860845    3.223079   -0.000000
     1.860845    1.074360    3.038748
   Ar
   1
Direct configuration=     1
   0.00000000  0.00000000  0.00000000
Cn_FCC                                  
           1
     3.722156    0.000000    0.000000
     1.861078    3.223481   -0.000000
     1.861078    1.074494    3.039127
   Ar
   1
Direct configuration=     2
   0.00000000  0.00000000  0.00000000
