   1   1   0   0
  0.3298244E+02  0.3599697E-09  0.3599697E-09  0.3599697E-09  0.1000000E-15
  1.000000000000000E-004
  CAR 
 Og_FCC                                  
     17.47285345    -21.09569035  301     -4.31837380      1.00000000
    -21.096  0.0000E+00  0.0000E+00
    -20.967  0.0000E+00  0.0000E+00
    -20.839  0.0000E+00  0.0000E+00
    -20.710  0.0000E+00  0.0000E+00
    -20.581  0.0000E+00  0.0000E+00
    -20.453  0.0000E+00  0.0000E+00
    -20.324  0.0000E+00  0.0000E+00
    -20.196  0.0000E+00  0.0000E+00
    -20.067  0.0000E+00  0.0000E+00
    -19.939  0.0000E+00  0.0000E+00
    -19.810  0.0000E+00  0.0000E+00
    -19.682  0.0000E+00  0.0000E+00
    -19.553  0.0000E+00  0.0000E+00
    -19.424  0.0000E+00  0.0000E+00
    -19.296  0.0000E+00  0.9259E-02
    -19.167  0.0000E+00  0.2500E+00
    -19.039  0.9339E-06  0.8611E+00
    -18.910  0.0000E+00  0.2000E+01
    -18.782  0.0000E+00  0.2000E+01
    -18.653  0.0000E+00  0.2000E+01
    -18.524  0.0000E+00  0.2000E+01
    -18.396  0.0000E+00  0.2000E+01
    -18.267  0.0000E+00  0.2000E+01
    -18.139  0.0000E+00  0.2000E+01
    -18.010  0.0000E+00  0.2000E+01
    -17.882  0.0000E+00  0.2000E+01
    -17.753  0.0000E+00  0.2000E+01
    -17.625  0.0000E+00  0.2000E+01
    -17.496  0.0000E+00  0.2000E+01
    -17.367  0.0000E+00  0.2000E+01
    -17.239  0.0000E+00  0.2000E+01
    -17.110  0.0000E+00  0.2000E+01
    -16.982  0.0000E+00  0.2000E+01
    -16.853  0.0000E+00  0.2000E+01
    -16.725  0.0000E+00  0.2000E+01
    -16.596  0.0000E+00  0.2000E+01
    -16.467  0.0000E+00  0.2000E+01
    -16.339  0.0000E+00  0.2000E+01
    -16.210  0.0000E+00  0.2000E+01
    -16.082  0.0000E+00  0.2000E+01
    -15.953  0.0000E+00  0.2000E+01
    -15.825  0.0000E+00  0.2000E+01
    -15.696  0.0000E+00  0.2000E+01
    -15.568  0.0000E+00  0.2000E+01
    -15.439  0.0000E+00  0.2000E+01
    -15.310  0.0000E+00  0.2000E+01
    -15.182  0.0000E+00  0.2000E+01
    -15.053  0.0000E+00  0.2000E+01
    -14.925  0.0000E+00  0.2000E+01
    -14.796  0.0000E+00  0.2000E+01
    -14.668  0.0000E+00  0.2000E+01
    -14.539  0.0000E+00  0.2000E+01
    -14.410  0.0000E+00  0.2000E+01
    -14.282  0.0000E+00  0.2000E+01
    -14.153  0.0000E+00  0.2000E+01
    -14.025  0.0000E+00  0.2000E+01
    -13.896  0.0000E+00  0.2000E+01
    -13.768  0.0000E+00  0.2000E+01
    -13.639  0.0000E+00  0.2000E+01
    -13.511  0.0000E+00  0.2000E+01
    -13.382  0.0000E+00  0.2000E+01
    -13.253  0.0000E+00  0.2000E+01
    -13.125  0.0000E+00  0.2000E+01
    -12.996  0.0000E+00  0.2000E+01
    -12.868  0.0000E+00  0.2000E+01
    -12.739  0.0000E+00  0.2000E+01
    -12.611  0.0000E+00  0.2000E+01
    -12.482  0.0000E+00  0.2000E+01
    -12.353  0.0000E+00  0.2000E+01
    -12.225  0.0000E+00  0.2000E+01
    -12.096  0.0000E+00  0.2000E+01
    -11.968  0.0000E+00  0.2000E+01
    -11.839  0.0000E+00  0.2000E+01
    -11.711  0.0000E+00  0.2000E+01
    -11.582  0.0000E+00  0.2000E+01
    -11.454  0.0000E+00  0.2000E+01
    -11.325  0.0000E+00  0.2000E+01
    -11.196  0.0000E+00  0.2000E+01
    -11.068  0.0000E+00  0.2000E+01
    -10.939  0.0000E+00  0.2000E+01
    -10.811  0.0000E+00  0.2000E+01
    -10.682  0.0000E+00  0.2000E+01
    -10.554  0.0000E+00  0.2000E+01
    -10.425  0.0000E+00  0.2000E+01
    -10.296  0.0000E+00  0.2000E+01
    -10.168  0.0000E+00  0.2000E+01
    -10.039  0.0000E+00  0.2000E+01
     -9.911  0.0000E+00  0.2000E+01
     -9.782  0.0000E+00  0.2000E+01
     -9.654  0.0000E+00  0.2000E+01
     -9.525  0.0000E+00  0.2000E+01
     -9.397  0.0000E+00  0.2000E+01
     -9.268  0.0000E+00  0.2000E+01
     -9.139  0.0000E+00  0.2000E+01
     -9.011  0.0000E+00  0.2000E+01
     -8.882  0.0000E+00  0.2000E+01
     -8.754  0.0000E+00  0.2000E+01
     -8.625  0.0000E+00  0.2000E+01
     -8.497  0.0000E+00  0.2000E+01
     -8.368  0.0000E+00  0.2000E+01
     -8.240  0.0000E+00  0.2000E+01
     -8.111  0.0000E+00  0.2000E+01
     -7.982  0.0000E+00  0.2000E+01
     -7.854  0.0000E+00  0.2000E+01
     -7.725  0.0000E+00  0.2000E+01
     -7.597  0.0000E+00  0.2000E+01
     -7.468  0.0000E+00  0.2000E+01
     -7.340  0.0000E+00  0.2000E+01
     -7.211  0.0000E+00  0.2000E+01
     -7.082  0.0000E+00  0.2000E+01
     -6.954  0.0000E+00  0.2000E+01
     -6.825  0.0000E+00  0.2000E+01
     -6.697  0.0000E+00  0.2000E+01
     -6.568  0.0000E+00  0.2000E+01
     -6.440  0.0000E+00  0.2000E+01
     -6.311  0.0000E+00  0.2000E+01
     -6.183  0.0000E+00  0.2000E+01
     -6.054  0.0000E+00  0.2000E+01
     -5.925  0.0000E+00  0.2037E+01
     -5.797  0.0000E+00  0.2287E+01
     -5.668  0.0000E+00  0.2731E+01
     -5.540  0.0000E+00  0.3417E+01
     -5.411  0.0000E+00  0.3861E+01
     -5.283  0.0000E+00  0.3861E+01
     -5.154  0.0000E+00  0.4306E+01
     -5.025  0.0000E+00  0.4528E+01
     -4.897  0.0000E+00  0.4917E+01
     -4.768  0.0000E+00  0.6046E+01
     -4.640  0.1729E+01  0.6935E+01
     -4.511  0.2016E+01  0.7713E+01
     -4.383  0.4594E-14  0.7972E+01
     -4.254  0.0000E+00  0.8000E+01
     -4.126  0.0000E+00  0.8000E+01
     -3.997  0.0000E+00  0.8000E+01
     -3.868  0.0000E+00  0.8000E+01
     -3.740  0.0000E+00  0.8000E+01
     -3.611  0.0000E+00  0.8000E+01
     -3.483  0.0000E+00  0.8000E+01
     -3.354  0.0000E+00  0.8000E+01
     -3.226  0.0000E+00  0.8000E+01
     -3.097  0.0000E+00  0.8000E+01
     -2.968  0.0000E+00  0.8000E+01
     -2.840  0.0000E+00  0.8000E+01
     -2.711  0.0000E+00  0.8000E+01
     -2.583  0.0000E+00  0.8000E+01
     -2.454  0.0000E+00  0.8000E+01
     -2.326  0.0000E+00  0.8000E+01
     -2.197  0.0000E+00  0.8000E+01
     -2.069  0.0000E+00  0.8000E+01
     -1.940  0.0000E+00  0.8000E+01
     -1.811  0.0000E+00  0.8000E+01
     -1.683  0.0000E+00  0.8000E+01
     -1.554  0.0000E+00  0.8000E+01
     -1.426  0.0000E+00  0.8000E+01
     -1.297  0.0000E+00  0.8000E+01
     -1.169  0.0000E+00  0.8000E+01
     -1.040  0.0000E+00  0.8000E+01
     -0.911  0.0000E+00  0.8000E+01
     -0.783  0.0000E+00  0.8000E+01
     -0.654  0.0000E+00  0.8000E+01
     -0.526  0.0000E+00  0.8000E+01
     -0.397  0.0000E+00  0.8000E+01
     -0.269  0.0000E+00  0.8000E+01
     -0.140  0.0000E+00  0.8000E+01
     -0.012  0.0000E+00  0.8000E+01
      0.117  0.0000E+00  0.8000E+01
      0.246  0.0000E+00  0.8000E+01
      0.374  0.0000E+00  0.8000E+01
      0.503  0.0000E+00  0.8000E+01
      0.631  0.0000E+00  0.8000E+01
      0.760  0.0000E+00  0.8000E+01
      0.888  0.0000E+00  0.8000E+01
      1.017  0.0000E+00  0.8000E+01
      1.146  0.0000E+00  0.8000E+01
      1.274  0.0000E+00  0.8000E+01
      1.403  0.0000E+00  0.8000E+01
      1.531  0.0000E+00  0.8000E+01
      1.660  0.0000E+00  0.8000E+01
      1.788  0.0000E+00  0.8000E+01
      1.917  0.0000E+00  0.8000E+01
      2.045  0.0000E+00  0.8000E+01
      2.174  0.0000E+00  0.8000E+01
      2.303  0.0000E+00  0.8000E+01
      2.431  0.0000E+00  0.8000E+01
      2.560  0.0000E+00  0.8000E+01
      2.688  0.0000E+00  0.8000E+01
      2.817  0.0000E+00  0.8000E+01
      2.945  0.0000E+00  0.8000E+01
      3.074  0.0000E+00  0.8000E+01
      3.202  0.0000E+00  0.8000E+01
      3.331  0.0000E+00  0.8000E+01
      3.460  0.0000E+00  0.8000E+01
      3.588  0.0000E+00  0.8000E+01
      3.717  0.0000E+00  0.8000E+01
      3.845  0.0000E+00  0.8000E+01
      3.974  0.0000E+00  0.8000E+01
      4.102  0.0000E+00  0.8000E+01
      4.231  0.0000E+00  0.8000E+01
      4.360  0.0000E+00  0.8000E+01
      4.488  0.0000E+00  0.8009E+01
      4.617  0.0000E+00  0.8009E+01
      4.745  0.0000E+00  0.8009E+01
      4.874  0.0000E+00  0.8009E+01
      5.002  0.0000E+00  0.8009E+01
      5.131  0.0000E+00  0.8009E+01
      5.259  0.0000E+00  0.8083E+01
      5.388  0.0000E+00  0.8083E+01
      5.517  0.0000E+00  0.8139E+01
      5.645  0.0000E+00  0.8139E+01
      5.774  0.0000E+00  0.8139E+01
      5.902  0.0000E+00  0.8139E+01
      6.031  0.0000E+00  0.8139E+01
      6.159  0.0000E+00  0.8139E+01
      6.288  0.0000E+00  0.8139E+01
      6.417  0.0000E+00  0.8250E+01
      6.545  0.0000E+00  0.8250E+01
      6.674  0.0000E+00  0.8250E+01
      6.802  0.0000E+00  0.8546E+01
      6.931  0.0000E+00  0.8574E+01
      7.059  0.0000E+00  0.8630E+01
      7.188  0.2881E+00  0.8667E+01
      7.316  0.0000E+00  0.8667E+01
      7.445  0.0000E+00  0.8889E+01
      7.574  0.0000E+00  0.8889E+01
      7.702  0.0000E+00  0.9222E+01
      7.831  0.0000E+00  0.9667E+01
      7.959  0.0000E+00  0.9667E+01
      8.088  0.0000E+00  0.9667E+01
      8.216  0.0000E+00  0.9667E+01
      8.345  0.0000E+00  0.9806E+01
      8.474  0.0000E+00  0.1003E+02
      8.602  0.0000E+00  0.1003E+02
      8.731  0.0000E+00  0.1025E+02
      8.859  0.0000E+00  0.1031E+02
      8.988  0.2013E-07  0.1064E+02
      9.116  0.0000E+00  0.1075E+02
      9.245  0.0000E+00  0.1097E+02
      9.373  0.0000E+00  0.1119E+02
      9.502  0.0000E+00  0.1142E+02
      9.631  0.0000E+00  0.1164E+02
      9.759  0.0000E+00  0.1164E+02
      9.888  0.0000E+00  0.1194E+02
     10.016  0.0000E+00  0.1208E+02
     10.145  0.0000E+00  0.1231E+02
     10.273  0.8763E-06  0.1242E+02
     10.402  0.0000E+00  0.1269E+02
     10.531  0.0000E+00  0.1269E+02
     10.659  0.0000E+00  0.1310E+02
     10.788  0.0000E+00  0.1360E+02
     10.916  0.0000E+00  0.1360E+02
     11.045  0.0000E+00  0.1360E+02
     11.173  0.0000E+00  0.1379E+02
     11.302  0.0000E+00  0.1379E+02
     11.430  0.1150E+01  0.1393E+02
     11.559  0.0000E+00  0.1396E+02
     11.688  0.2161E+00  0.1399E+02
     11.816  0.0000E+00  0.1458E+02
     11.945  0.0000E+00  0.1458E+02
     12.073  0.0000E+00  0.1458E+02
     12.202  0.0000E+00  0.1469E+02
     12.330  0.1729E+01  0.1514E+02
     12.459  0.0000E+00  0.1525E+02
     12.588  0.0000E+00  0.1525E+02
     12.716  0.1225E-01  0.1525E+02
     12.845  0.0000E+00  0.1569E+02
     12.973  0.0000E+00  0.1569E+02
     13.102  0.0000E+00  0.1569E+02
     13.230  0.0000E+00  0.1569E+02
     13.359  0.0000E+00  0.1569E+02
     13.487  0.0000E+00  0.1569E+02
     13.616  0.1728E+01  0.1592E+02
     13.745  0.0000E+00  0.1592E+02
     13.873  0.0000E+00  0.1597E+02
     14.002  0.0000E+00  0.1597E+02
     14.130  0.0000E+00  0.1597E+02
     14.259  0.0000E+00  0.1597E+02
     14.387  0.0000E+00  0.1597E+02
     14.516  0.0000E+00  0.1597E+02
     14.644  0.0000E+00  0.1597E+02
     14.773  0.0000E+00  0.1597E+02
     14.902  0.0000E+00  0.1597E+02
     15.030  0.0000E+00  0.1597E+02
     15.159  0.0000E+00  0.1597E+02
     15.287  0.0000E+00  0.1597E+02
     15.416  0.0000E+00  0.1597E+02
     15.544  0.0000E+00  0.1597E+02
     15.673  0.0000E+00  0.1597E+02
     15.802  0.0000E+00  0.1600E+02
     15.930  0.0000E+00  0.1600E+02
     16.059  0.0000E+00  0.1600E+02
     16.187  0.0000E+00  0.1600E+02
     16.316  0.0000E+00  0.1600E+02
     16.444  0.0000E+00  0.1600E+02
     16.573  0.0000E+00  0.1600E+02
     16.701  0.0000E+00  0.1600E+02
     16.830  0.0000E+00  0.1600E+02
     16.959  0.0000E+00  0.1600E+02
     17.087  0.0000E+00  0.1600E+02
     17.216  0.0000E+00  0.1600E+02
     17.344  0.0000E+00  0.1600E+02
     17.473  0.0000E+00  0.1600E+02
