    1    1    1    1
  0.3298244E+02  0.3599697E-09  0.3599697E-09  0.3599697E-09  0.1000000E-15
  1.000000000000000E-004
  CAR 
 Og_FCC                                  
      8    112      8
 
  0.0000000E+00  0.0000000E+00  0.0000000E+00  0.4629630E-02
    1      -19.342575   1.000000
    2       -4.377314   1.000000
    3       -4.377314   1.000000
    4       -4.377314   1.000000
    5        4.447066   0.000000
    6       11.509472   0.000000
    7       11.509473   0.000000
    8       11.509473   0.000000
 
  0.1666667E+00  0.1890198E-17 -0.2775558E-16  0.9259259E-02
    1      -19.273353   1.000000
    2       -4.843384   1.000000
    3       -4.423876   1.000000
    4       -4.423876   1.000000
    5        5.246545   0.000000
    6       10.628399   0.000000
    7       11.758279   0.000000
    8       11.758279   0.000000
 
  0.3333333E+00  0.3780395E-17 -0.2775558E-16  0.9259259E-02
    1      -19.129943   1.000000
    2       -5.652313   1.000000
    3       -4.513605   1.000000
    4       -4.513604   1.000000
    5        6.689184   0.000000
    6        9.827347   0.000000
    7       11.428432   0.000000
    8       11.428432   0.000000
 
  0.5000000E+00  0.5670593E-17 -0.8326673E-16  0.4629630E-02
    1      -19.055528   1.000000
    2       -6.014493   1.000000
    3       -4.557373   1.000000
    4       -4.557373   1.000000
    5        7.181813   0.000000
    6        9.938682   0.000000
    7       11.109359   0.000000
    8       11.109360   0.000000
 
  0.3851860E-33  0.1666667E+00 -0.1387779E-16  0.9259259E-02
    1      -19.273353   1.000000
    2       -4.843384   1.000000
    3       -4.423876   1.000000
    4       -4.423876   1.000000
    5        5.246545   0.000000
    6       10.628399   0.000000
    7       11.758279   0.000000
    8       11.758279   0.000000
 
  0.1666667E+00  0.1666667E+00 -0.6938894E-16  0.9259259E-02
    1      -19.250501   1.000000
    2       -4.833291   1.000000
    3       -4.516385   1.000000
    4       -4.516385   1.000000
    5        5.495876   0.000000
    6       10.276651   0.000000
    7       12.083340   0.000000
    8       12.083358   0.000000
 
  0.3333333E+00  0.1666667E+00 -0.5551115E-16  0.9259259E-02
    1      -19.131891   1.000000
    2       -5.420926   1.000000
    3       -4.644828   1.000000
    4       -4.629118   1.000000
    5        6.752365   0.000000
    6        9.534715   0.000000
    7       10.774033   0.000000
    8       12.249390   0.000000
 
  0.5000000E+00  0.1666667E+00 -0.1387779E-15  0.9259259E-02
    1      -19.033204   1.000000
    2       -5.848455   1.000000
    3       -4.821529   1.000000
    4       -4.650131   1.000000
    5        7.762101   0.000000
    6        9.175790   0.000000
    7       10.596703   0.000000
    8       11.781682   0.000000
 
 -0.3333333E+00  0.1666667E+00 -0.6938894E-17  0.9259259E-02
    1      -19.057750   1.000000
    2       -5.736725   1.000000
    3       -4.879124   1.000000
    4       -4.560443   1.000000
    5        7.665505   0.000000
    6        9.451825   0.000000
    7       10.387183   0.000000
    8       11.742489   0.000000
 
 -0.1666667E+00  0.1666667E+00  0.2128544E-16  0.9259259E-02
    1      -19.179196   1.000000
    2       -5.243212   1.000000
    3       -4.690837   1.000000
    4       -4.446674   1.000000
    5        6.327902   0.000000
    6        9.995842   0.000000
    7       11.077878   0.000000
    8       12.399304   0.000000
 
  0.7703720E-33  0.3333333E+00  0.0000000E+00  0.9259259E-02
    1      -19.129943   1.000000
    2       -5.652313   1.000000
    3       -4.513605   1.000000
    4       -4.513604   1.000000
    5        6.689184   0.000000
    6        9.827347   0.000000
    7       11.428432   0.000000
    8       11.428432   0.000000
 
  0.1666667E+00  0.3333333E+00 -0.2775558E-16  0.9259259E-02
    1      -19.131891   1.000000
    2       -5.420926   1.000000
    3       -4.644828   1.000000
    4       -4.629118   1.000000
    5        6.752365   0.000000
    6        9.534715   0.000000
    7       10.774033   0.000000
    8       12.249390   0.000000
 
  0.3333333E+00  0.3333333E+00 -0.2775558E-16  0.9259259E-02
    1      -19.061347   1.000000
    2       -5.558623   1.000000
    3       -4.783966   1.000000
    4       -4.783966   1.000000
    5        6.950374   0.000000
    6        8.805774   0.000000
    7       10.762777   0.000000
    8       13.751759   0.000000
 
  0.5000000E+00  0.3333333E+00 -0.1665335E-15  0.9259259E-02
    1      -18.987499   1.000000
    2       -5.722014   1.000000
    3       -5.046775   1.000000
    4       -4.826741   1.000000
    5        7.356770   0.000000
    6        8.712018   0.000000
    7       10.769855   0.000000
    8       13.613131   0.000000
 
 -0.3333333E+00  0.3333333E+00  0.2028582E-16  0.9259259E-02
    1      -18.985849   1.000000
    2       -5.486603   1.000000
    3       -5.445763   1.000000
    4       -4.718425   1.000000
    5        8.283103   0.000000
    6        8.868772   0.000000
    7       10.244591   0.000000
    8       12.717617   0.000000
 
 -0.1666667E+00  0.3333333E+00  0.1387779E-16  0.9259259E-02
    1      -19.057750   1.000000
    2       -5.736725   1.000000
    3       -4.879124   1.000000
    4       -4.560443   1.000000
    5        7.665505   0.000000
    6        9.451826   0.000000
    7       10.387183   0.000000
    8       11.742489   0.000000
 
  0.2311116E-32  0.5000000E+00 -0.2775558E-16  0.4629630E-02
    1      -19.055528   1.000000
    2       -6.014493   1.000000
    3       -4.557373   1.000000
    4       -4.557373   1.000000
    5        7.181812   0.000000
    6        9.938682   0.000000
    7       11.109359   0.000000
    8       11.109360   0.000000
 
  0.1666667E+00  0.5000000E+00  0.0000000E+00  0.9259259E-02
    1      -19.033204   1.000000
    2       -5.848455   1.000000
    3       -4.821529   1.000000
    4       -4.650131   1.000000
    5        7.762101   0.000000
    6        9.175790   0.000000
    7       10.596703   0.000000
    8       11.781682   0.000000
 
  0.3333333E+00  0.5000000E+00  0.0000000E+00  0.9259259E-02
    1      -18.987499   1.000000
    2       -5.722014   1.000000
    3       -5.046775   1.000000
    4       -4.826741   1.000000
    5        7.356770   0.000000
    6        8.712018   0.000000
    7       10.769854   0.000000
    8       13.613131   0.000000
 
  0.5000000E+00  0.5000000E+00 -0.2220446E-15  0.4629630E-02
    1      -18.964077   1.000000
    2       -5.858728   1.000000
    3       -4.912069   1.000000
    4       -4.912069   1.000000
    5        6.826935   0.000000
    6        8.266542   0.000000
    7       11.679971   0.000000
    8       15.719738   0.000000
 
 -0.7703720E-33  0.7703720E-33  0.1666667E+00  0.9259259E-02
    1      -19.273353   1.000000
    2       -4.843384   1.000000
    3       -4.423876   1.000000
    4       -4.423876   1.000000
    5        5.246545   0.000000
    6       10.628399   0.000000
    7       11.758279   0.000000
    8       11.758279   0.000000
 
  0.1666667E+00  0.1009739E-16  0.1666667E+00  0.9259259E-02
    1      -19.250501   1.000000
    2       -4.833291   1.000000
    3       -4.516385   1.000000
    4       -4.516385   1.000000
    5        5.495876   0.000000
    6       10.276650   0.000000
    7       12.083340   0.000000
    8       12.083341   0.000000
 
  0.3333333E+00 -0.1890198E-17  0.1666667E+00  0.9259259E-02
    1      -19.131891   1.000000
    2       -5.420926   1.000000
    3       -4.644828   1.000000
    4       -4.629118   1.000000
    5        6.752365   0.000000
    6        9.534715   0.000000
    7       10.774033   0.000000
    8       12.249390   0.000000
 
  0.5000000E+00  0.2428613E-31  0.1666667E+00  0.9259259E-02
    1      -19.033204   1.000000
    2       -5.848455   1.000000
    3       -4.821529   1.000000
    4       -4.650131   1.000000
    5        7.762101   0.000000
    6        9.175790   0.000000
    7       10.596703   0.000000
    8       11.781682   0.000000
 
 -0.3333333E+00 -0.9450988E-17  0.1666667E+00  0.9259259E-02
    1      -19.057750   1.000000
    2       -5.736725   1.000000
    3       -4.879124   1.000000
    4       -4.560443   1.000000
    5        7.665505   0.000000
    6        9.451825   0.000000
    7       10.387183   0.000000
    8       11.742489   0.000000
 
 -0.1666667E+00 -0.7560790E-17  0.1666667E+00  0.9259259E-02
    1      -19.179196   1.000000
    2       -5.243212   1.000000
    3       -4.690837   1.000000
    4       -4.446674   1.000000
    5        6.327902   0.000000
    6        9.995842   0.000000
    7       11.077878   0.000000
    8       12.398395   0.000000
 
  0.0000000E+00  0.1666667E+00  0.1666667E+00  0.9259259E-02
    1      -19.250501   1.000000
    2       -4.833291   1.000000
    3       -4.516385   1.000000
    4       -4.516385   1.000000
    5        5.495876   0.000000
    6       10.276651   0.000000
    7       12.083340   0.000000
    8       12.083340   0.000000
 
  0.1666667E+00  0.1666667E+00  0.1666667E+00  0.9259259E-02
    1      -19.273353   1.000000
    2       -4.843384   1.000000
    3       -4.423876   1.000000
    4       -4.423876   1.000000
    5        5.246545   0.000000
    6       10.628398   0.000000
    7       11.758279   0.000000
    8       11.758279   0.000000
 
  0.3333333E+00  0.1666667E+00  0.1666667E+00  0.9259259E-02
    1      -19.179196   1.000000
    2       -5.243212   1.000000
    3       -4.690837   1.000000
    4       -4.446674   1.000000
    5        6.327902   0.000000
    6        9.995842   0.000000
    7       11.077878   0.000000
    8       12.398341   0.000000
 
  0.5000000E+00  0.1666667E+00  0.1666667E+00  0.9259259E-02
    1      -19.057750   1.000000
    2       -5.736725   1.000000
    3       -4.879124   1.000000
    4       -4.560443   1.000000
    5        7.665505   0.000000
    6        9.451826   0.000000
    7       10.387183   0.000000
    8       11.742489   0.000000
 
 -0.3333333E+00  0.1666667E+00  0.1666667E+00  0.9259259E-02
    1      -19.033204   1.000000
    2       -5.848455   1.000000
    3       -4.821528   1.000000
    4       -4.650132   1.000000
    5        7.762101   0.000000
    6        9.175790   0.000000
    7       10.596703   0.000000
    8       11.781681   0.000000
 
 -0.1666667E+00  0.1666667E+00  0.1666667E+00  0.9259259E-02
    1      -19.131891   1.000000
    2       -5.420926   1.000000
    3       -4.644828   1.000000
    4       -4.629118   1.000000
    5        6.752365   0.000000
    6        9.534715   0.000000
    7       10.774033   0.000000
    8       12.249390   0.000000
 
  0.3851860E-33  0.3333333E+00  0.1666667E+00  0.9259259E-02
    1      -19.131891   1.000000
    2       -5.420926   1.000000
    3       -4.644828   1.000000
    4       -4.629118   1.000000
    5        6.752365   0.000000
    6        9.534715   0.000000
    7       10.774033   0.000000
    8       12.249390   0.000000
 
  0.1666667E+00  0.3333333E+00  0.1666667E+00  0.9259259E-02
    1      -19.179196   1.000000
    2       -5.243212   1.000000
    3       -4.690837   1.000000
    4       -4.446674   1.000000
    5        6.327902   0.000000
    6        9.995842   0.000000
    7       11.077878   0.000000
    8       12.398350   0.000000
 
  0.3333333E+00  0.3333333E+00  0.1666667E+00  0.9259259E-02
    1      -19.131891   1.000000
    2       -5.420926   1.000000
    3       -4.644828   1.000000
    4       -4.629118   1.000000
    5        6.752365   0.000000
    6        9.534715   0.000000
    7       10.774033   0.000000
    8       12.249391   0.000000
 
  0.5000000E+00  0.3333333E+00  0.1666667E+00  0.9259259E-02
    1      -19.035253   1.000000
    2       -5.604787   1.000000
    3       -5.018136   1.000000
    4       -4.709773   1.000000
    5        7.773969   0.000000
    6        9.315735   0.000000
    7        9.793206   0.000000
    8       12.733463   0.000000
 
 -0.3333333E+00  0.3333333E+00  0.1666667E+00  0.9259259E-02
    1      -18.985855   1.000000
    2       -5.636280   1.000000
    3       -5.216959   1.000000
    4       -4.801074   1.000000
    5        8.378770   0.000000
    6        8.940779   0.000000
    7       10.053518   0.000000
    8       12.326690   0.000000
 
 -0.1666667E+00  0.3333333E+00  0.1666667E+00  0.9259259E-02
    1      -19.035253   1.000000
    2       -5.604788   1.000000
    3       -5.018136   1.000000
    4       -4.709772   1.000000
    5        7.773970   0.000000
    6        9.315735   0.000000
    7        9.793206   0.000000
    8       12.733463   0.000000
 
  0.7582560E-33  0.5000000E+00  0.1666667E+00  0.9259259E-02
    1      -19.033204   1.000000
    2       -5.848455   1.000000
    3       -4.821529   1.000000
    4       -4.650131   1.000000
    5        7.762101   0.000000
    6        9.175790   0.000000
    7       10.596703   0.000000
    8       11.781682   0.000000
 
  0.1666667E+00  0.5000000E+00  0.1666667E+00  0.9259259E-02
    1      -19.057750   1.000000
    2       -5.736725   1.000000
    3       -4.879124   1.000000
    4       -4.560443   1.000000
    5        7.665504   0.000000
    6        9.451826   0.000000
    7       10.387182   0.000000
    8       11.742489   0.000000
 
  0.3333333E+00  0.5000000E+00  0.1666667E+00  0.9259259E-02
    1      -19.035253   1.000000
    2       -5.604787   1.000000
    3       -5.018136   1.000000
    4       -4.709773   1.000000
    5        7.773969   0.000000
    6        9.315735   0.000000
    7        9.793206   0.000000
    8       12.733463   0.000000
 
  0.5000000E+00  0.5000000E+00  0.1666667E+00  0.9259259E-02
    1      -18.987499   1.000000
    2       -5.722014   1.000000
    3       -5.046774   1.000000
    4       -4.826741   1.000000
    5        7.356770   0.000000
    6        8.712018   0.000000
    7       10.769854   0.000000
    8       13.613131   0.000000
 
 -0.3333333E+00  0.5000000E+00  0.1666667E+00  0.9259259E-02
    1      -18.962653   1.000000
    2       -5.643127   1.000000
    3       -5.172724   1.000000
    4       -4.961090   1.000000
    5        7.629033   0.000000
    6        8.991637   0.000000
    7       10.624982   0.000000
    8       12.780356   0.000000
 
 -0.1666667E+00  0.5000000E+00  0.1666667E+00  0.9259259E-02
    1      -18.985855   1.000000
    2       -5.636280   1.000000
    3       -5.216959   1.000000
    4       -4.801073   1.000000
    5        8.378770   0.000000
    6        8.940779   0.000000
    7       10.053518   0.000000
    8       12.326690   0.000000
 
  0.0000000E+00 -0.3333333E+00  0.1666667E+00  0.9259259E-02
    1      -19.057750   1.000000
    2       -5.736725   1.000000
    3       -4.879124   1.000000
    4       -4.560443   1.000000
    5        7.665505   0.000000
    6        9.451826   0.000000
    7       10.387183   0.000000
    8       11.742489   0.000000
 
  0.1666667E+00 -0.3333333E+00  0.1666667E+00  0.9259259E-02
    1      -19.033204   1.000000
    2       -5.848455   1.000000
    3       -4.821528   1.000000
    4       -4.650132   1.000000
    5        7.762101   0.000000
    6        9.175790   0.000000
    7       10.596703   0.000000
    8       11.781681   0.000000
 
  0.3333333E+00 -0.3333333E+00  0.1666667E+00  0.9259259E-02
    1      -18.985855   1.000000
    2       -5.636280   1.000000
    3       -5.216959   1.000000
    4       -4.801074   1.000000
    5        8.378770   0.000000
    6        8.940778   0.000000
    7       10.053518   0.000000
    8       12.326690   0.000000
 
  0.5000000E+00 -0.3333333E+00  0.1666667E+00  0.9259259E-02
    1      -18.962653   1.000000
    2       -5.643127   1.000000
    3       -5.172723   1.000000
    4       -4.961090   1.000000
    5        7.629033   0.000000
    6        8.991637   0.000000
    7       10.624982   0.000000
    8       12.780356   0.000000
 
 -0.3333333E+00 -0.3333333E+00  0.1666667E+00  0.9259259E-02
    1      -18.987499   1.000000
    2       -5.722014   1.000000
    3       -5.046774   1.000000
    4       -4.826741   1.000000
    5        7.356770   0.000000
    6        8.712018   0.000000
    7       10.769854   0.000000
    8       13.613130   0.000000
 
 -0.1666667E+00 -0.3333333E+00  0.1666667E+00  0.9259259E-02
    1      -19.035253   1.000000
    2       -5.604788   1.000000
    3       -5.018136   1.000000
    4       -4.709772   1.000000
    5        7.773970   0.000000
    6        9.315735   0.000000
    7        9.793206   0.000000
    8       12.733463   0.000000
 
  0.0000000E+00 -0.1666667E+00  0.1666667E+00  0.9259259E-02
    1      -19.179196   1.000000
    2       -5.243212   1.000000
    3       -4.690837   1.000000
    4       -4.446674   1.000000
    5        6.327902   0.000000
    6        9.995842   0.000000
    7       11.077878   0.000000
    8       12.398344   0.000000
 
  0.1666667E+00 -0.1666667E+00  0.1666667E+00  0.9259259E-02
    1      -19.131891   1.000000
    2       -5.420926   1.000000
    3       -4.644828   1.000000
    4       -4.629118   1.000000
    5        6.752365   0.000000
    6        9.534715   0.000000
    7       10.774033   0.000000
    8       12.249390   0.000000
 
  0.3333333E+00 -0.1666667E+00  0.1666667E+00  0.9259259E-02
    1      -19.035253   1.000000
    2       -5.604788   1.000000
    3       -5.018136   1.000000
    4       -4.709772   1.000000
    5        7.773969   0.000000
    6        9.315735   0.000000
    7        9.793206   0.000000
    8       12.733463   0.000000
 
  0.5000000E+00 -0.1666667E+00  0.1666667E+00  0.9259259E-02
    1      -18.985855   1.000000
    2       -5.636280   1.000000
    3       -5.216959   1.000000
    4       -4.801073   1.000000
    5        8.378770   0.000000
    6        8.940779   0.000000
    7       10.053518   0.000000
    8       12.326690   0.000000
 
 -0.3333333E+00 -0.1666667E+00  0.1666667E+00  0.9259259E-02
    1      -19.035253   1.000000
    2       -5.604788   1.000000
    3       -5.018136   1.000000
    4       -4.709772   1.000000
    5        7.773970   0.000000
    6        9.315735   0.000000
    7        9.793206   0.000000
    8       12.733463   0.000000
 
 -0.1666667E+00 -0.1666667E+00  0.1666667E+00  0.9259259E-02
    1      -19.131891   1.000000
    2       -5.420926   1.000000
    3       -4.644828   1.000000
    4       -4.629118   1.000000
    5        6.752365   0.000000
    6        9.534715   0.000000
    7       10.774033   0.000000
    8       12.249390   0.000000
 
  0.0000000E+00  0.3081488E-32  0.3333333E+00  0.9259259E-02
    1      -19.129943   1.000000
    2       -5.652313   1.000000
    3       -4.513605   1.000000
    4       -4.513604   1.000000
    5        6.689184   0.000000
    6        9.827347   0.000000
    7       11.428432   0.000000
    8       11.428432   0.000000
 
  0.1666667E+00  0.3218238E-16  0.3333333E+00  0.9259259E-02
    1      -19.131891   1.000000
    2       -5.420926   1.000000
    3       -4.644828   1.000000
    4       -4.629118   1.000000
    5        6.752365   0.000000
    6        9.534715   0.000000
    7       10.774033   0.000000
    8       12.249390   0.000000
 
  0.3333333E+00  0.2019479E-16  0.3333333E+00  0.9259259E-02
    1      -19.061347   1.000000
    2       -5.558623   1.000000
    3       -4.783966   1.000000
    4       -4.783966   1.000000
    5        6.950374   0.000000
    6        8.805774   0.000000
    7       10.762778   0.000000
    8       13.751760   0.000000
 
  0.5000000E+00 -0.5670593E-17  0.3333333E+00  0.9259259E-02
    1      -18.987499   1.000000
    2       -5.722014   1.000000
    3       -5.046775   1.000000
    4       -4.826741   1.000000
    5        7.356770   0.000000
    6        8.712018   0.000000
    7       10.769855   0.000000
    8       13.613131   0.000000
 
 -0.3333333E+00  0.1263399E-16  0.3333333E+00  0.9259259E-02
    1      -18.985849   1.000000
    2       -5.486603   1.000000
    3       -5.445763   1.000000
    4       -4.718425   1.000000
    5        8.283103   0.000000
    6        8.868772   0.000000
    7       10.244591   0.000000
    8       12.717617   0.000000
 
 -0.1666667E+00  0.1452419E-16  0.3333333E+00  0.9259259E-02
    1      -19.057750   1.000000
    2       -5.736725   1.000000
    3       -4.879124   1.000000
    4       -4.560443   1.000000
    5        7.665505   0.000000
    6        9.451825   0.000000
    7       10.387183   0.000000
    8       11.742489   0.000000
 
 -0.3081488E-32  0.1666667E+00  0.3333333E+00  0.9259259E-02
    1      -19.131891   1.000000
    2       -5.420926   1.000000
    3       -4.644828   1.000000
    4       -4.629118   1.000000
    5        6.752365   0.000000
    6        9.534715   0.000000
    7       10.774033   0.000000
    8       12.249390   0.000000
 
  0.1666667E+00  0.1666667E+00  0.3333333E+00  0.9259259E-02
    1      -19.179196   1.000000
    2       -5.243212   1.000000
    3       -4.690837   1.000000
    4       -4.446674   1.000000
    5        6.327902   0.000000
    6        9.995842   0.000000
    7       11.077878   0.000000
    8       12.398351   0.000000
 
  0.3333333E+00  0.1666667E+00  0.3333333E+00  0.9259259E-02
    1      -19.131891   1.000000
    2       -5.420926   1.000000
    3       -4.644828   1.000000
    4       -4.629118   1.000000
    5        6.752365   0.000000
    6        9.534715   0.000000
    7       10.774034   0.000000
    8       12.249391   0.000000
 
  0.5000000E+00  0.1666667E+00  0.3333333E+00  0.9259259E-02
    1      -19.035253   1.000000
    2       -5.604787   1.000000
    3       -5.018136   1.000000
    4       -4.709773   1.000000
    5        7.773969   0.000000
    6        9.315735   0.000000
    7        9.793206   0.000000
    8       12.733463   0.000000
 
 -0.3333333E+00  0.1666667E+00  0.3333333E+00  0.9259259E-02
    1      -18.985855   1.000000
    2       -5.636280   1.000000
    3       -5.216959   1.000000
    4       -4.801074   1.000000
    5        8.378770   0.000000
    6        8.940779   0.000000
    7       10.053518   0.000000
    8       12.326690   0.000000
 
 -0.1666667E+00  0.1666667E+00  0.3333333E+00  0.9259259E-02
    1      -19.035253   1.000000
    2       -5.604788   1.000000
    3       -5.018136   1.000000
    4       -4.709772   1.000000
    5        7.773970   0.000000
    6        9.315735   0.000000
    7        9.793206   0.000000
    8       12.733463   0.000000
 
 -0.1540744E-32  0.3333333E+00  0.3333333E+00  0.9259259E-02
    1      -19.061347   1.000000
    2       -5.558623   1.000000
    3       -4.783966   1.000000
    4       -4.783966   1.000000
    5        6.950374   0.000000
    6        8.805774   0.000000
    7       10.762777   0.000000
    8       13.751759   0.000000
 
  0.1666667E+00  0.3333333E+00  0.3333333E+00  0.9259259E-02
    1      -19.131891   1.000000
    2       -5.420926   1.000000
    3       -4.644828   1.000000
    4       -4.629118   1.000000
    5        6.752365   0.000000
    6        9.534715   0.000000
    7       10.774034   0.000000
    8       12.249391   0.000000
 
  0.3333333E+00  0.3333333E+00  0.3333333E+00  0.9259259E-02
    1      -19.129943   1.000000
    2       -5.652313   1.000000
    3       -4.513605   1.000000
    4       -4.513605   1.000000
    5        6.689184   0.000000
    6        9.827347   0.000000
    7       11.428432   0.000000
    8       11.428433   0.000000
 
  0.5000000E+00  0.3333333E+00  0.3333333E+00  0.9259259E-02
    1      -19.057750   1.000000
    2       -5.736725   1.000000
    3       -4.879124   1.000000
    4       -4.560443   1.000000
    5        7.665504   0.000000
    6        9.451825   0.000000
    7       10.387183   0.000000
    8       11.742489   0.000000
 
 -0.3333333E+00  0.3333333E+00  0.3333333E+00  0.9259259E-02
    1      -18.985849   1.000000
    2       -5.486603   1.000000
    3       -5.445763   1.000000
    4       -4.718425   1.000000
    5        8.283103   0.000000
    6        8.868772   0.000000
    7       10.244591   0.000000
    8       12.717616   0.000000
 
 -0.1666667E+00  0.3333333E+00  0.3333333E+00  0.9259259E-02
    1      -18.987499   1.000000
    2       -5.722014   1.000000
    3       -5.046774   1.000000
    4       -4.826741   1.000000
    5        7.356770   0.000000
    6        8.712018   0.000000
    7       10.769854   0.000000
    8       13.613130   0.000000
 
 -0.7703720E-33  0.5000000E+00  0.3333333E+00  0.9259259E-02
    1      -18.987499   1.000000
    2       -5.722014   1.000000
    3       -5.046775   1.000000
    4       -4.826741   1.000000
    5        7.356770   0.000000
    6        8.712018   0.000000
    7       10.769854   0.000000
    8       13.613131   0.000000
 
  0.1666667E+00  0.5000000E+00  0.3333333E+00  0.9259259E-02
    1      -19.035253   1.000000
    2       -5.604787   1.000000
    3       -5.018136   1.000000
    4       -4.709773   1.000000
    5        7.773969   0.000000
    6        9.315735   0.000000
    7        9.793206   0.000000
    8       12.733463   0.000000
 
  0.3333333E+00  0.5000000E+00  0.3333333E+00  0.9259259E-02
    1      -19.057750   1.000000
    2       -5.736725   1.000000
    3       -4.879124   1.000000
    4       -4.560443   1.000000
    5        7.665504   0.000000
    6        9.451825   0.000000
    7       10.387183   0.000000
    8       11.742489   0.000000
 
  0.5000000E+00  0.5000000E+00  0.3333333E+00  0.9259259E-02
    1      -19.033204   1.000000
    2       -5.848455   1.000000
    3       -4.821529   1.000000
    4       -4.650132   1.000000
    5        7.762101   0.000000
    6        9.175790   0.000000
    7       10.596703   0.000000
    8       11.781682   0.000000
 
 -0.3333333E+00  0.5000000E+00  0.3333333E+00  0.9259259E-02
    1      -18.985855   1.000000
    2       -5.636280   1.000000
    3       -5.216959   1.000000
    4       -4.801074   1.000000
    5        8.378770   0.000000
    6        8.940779   0.000000
    7       10.053518   0.000000
    8       12.326690   0.000000
 
 -0.1666667E+00  0.5000000E+00  0.3333333E+00  0.9259259E-02
    1      -18.962653   1.000000
    2       -5.643127   1.000000
    3       -5.172724   1.000000
    4       -4.961090   1.000000
    5        7.629033   0.000000
    6        8.991637   0.000000
    7       10.624982   0.000000
    8       12.780356   0.000000
 
 -0.3081488E-32 -0.3333333E+00  0.3333333E+00  0.9259259E-02
    1      -18.985849   1.000000
    2       -5.486603   1.000000
    3       -5.445763   1.000000
    4       -4.718425   1.000000
    5        8.283103   0.000000
    6        8.868772   0.000000
    7       10.244591   0.000000
    8       12.717617   0.000000
 
  0.1666667E+00 -0.3333333E+00  0.3333333E+00  0.9259259E-02
    1      -18.985855   1.000000
    2       -5.636280   1.000000
    3       -5.216959   1.000000
    4       -4.801074   1.000000
    5        8.378770   0.000000
    6        8.940778   0.000000
    7       10.053518   0.000000
    8       12.326690   0.000000
 
  0.3333333E+00 -0.3333333E+00  0.3333333E+00  0.9259259E-02
    1      -18.985849   1.000000
    2       -5.486603   1.000000
    3       -5.445763   1.000000
    4       -4.718425   1.000000
    5        8.283103   0.000000
    6        8.868772   0.000000
    7       10.244591   0.000000
    8       12.717617   0.000000
 
  0.5000000E+00 -0.3333333E+00  0.3333333E+00  0.9259259E-02
    1      -18.985855   1.000000
    2       -5.636280   1.000000
    3       -5.216959   1.000000
    4       -4.801074   1.000000
    5        8.378770   0.000000
    6        8.940778   0.000000
    7       10.053518   0.000000
    8       12.326690   0.000000
 
 -0.3333333E+00 -0.3333333E+00  0.3333333E+00  0.9259259E-02
    1      -18.985849   1.000000
    2       -5.486603   1.000000
    3       -5.445763   1.000000
    4       -4.718425   1.000000
    5        8.283103   0.000000
    6        8.868772   0.000000
    7       10.244591   0.000000
    8       12.717616   0.000000
 
 -0.1666667E+00 -0.3333333E+00  0.3333333E+00  0.9259259E-02
    1      -18.985855   1.000000
    2       -5.636280   1.000000
    3       -5.216959   1.000000
    4       -4.801074   1.000000
    5        8.378770   0.000000
    6        8.940779   0.000000
    7       10.053518   0.000000
    8       12.326690   0.000000
 
 -0.1540744E-32 -0.1666667E+00  0.3333333E+00  0.9259259E-02
    1      -19.057750   1.000000
    2       -5.736725   1.000000
    3       -4.879124   1.000000
    4       -4.560443   1.000000
    5        7.665505   0.000000
    6        9.451825   0.000000
    7       10.387183   0.000000
    8       11.742489   0.000000
 
  0.1666667E+00 -0.1666667E+00  0.3333333E+00  0.9259259E-02
    1      -19.035253   1.000000
    2       -5.604788   1.000000
    3       -5.018136   1.000000
    4       -4.709772   1.000000
    5        7.773969   0.000000
    6        9.315735   0.000000
    7        9.793206   0.000000
    8       12.733463   0.000000
 
  0.3333333E+00 -0.1666667E+00  0.3333333E+00  0.9259259E-02
    1      -18.987499   1.000000
    2       -5.722014   1.000000
    3       -5.046774   1.000000
    4       -4.826741   1.000000
    5        7.356770   0.000000
    6        8.712018   0.000000
    7       10.769855   0.000000
    8       13.613130   0.000000
 
  0.5000000E+00 -0.1666667E+00  0.3333333E+00  0.9259259E-02
    1      -18.962653   1.000000
    2       -5.643127   1.000000
    3       -5.172723   1.000000
    4       -4.961090   1.000000
    5        7.629033   0.000000
    6        8.991637   0.000000
    7       10.624982   0.000000
    8       12.780356   0.000000
 
 -0.3333333E+00 -0.1666667E+00  0.3333333E+00  0.9259259E-02
    1      -18.985855   1.000000
    2       -5.636280   1.000000
    3       -5.216959   1.000000
    4       -4.801074   1.000000
    5        8.378770   0.000000
    6        8.940779   0.000000
    7       10.053518   0.000000
    8       12.326690   0.000000
 