 running on   32 total cores
 distrk:  each k-point on   16 cores,    2 groups
 distr:  one band on    4 cores,    4 groups
 using from now: INCAR     
 vasp.5.4.4.18Apr17-6-g9f103f2a35 (build Jul 09 2018 16:43:14) complex          
  
 POSCAR found type information on POSCAR  Ar
 POSCAR found :  1 types and       1 ions
 scaLAPACK will be used

 ----------------------------------------------------------------------------- 
|                                                                             |
|           W    W    AA    RRRRR   N    N  II  N    N   GGGG   !!!           |
|           W    W   A  A   R    R  NN   N  II  NN   N  G    G  !!!           |
|           W    W  A    A  R    R  N N  N  II  N N  N  G       !!!           |
|           W WW W  AAAAAA  RRRRR   N  N N  II  N  N N  G  GGG   !            |
|           WW  WW  A    A  R   R   N   NN  II  N   NN  G    G                |
|           W    W  A    A  R    R  N    N  II  N    N   GGGG   !!!           |
|                                                                             |
|      You have enabled k-point parallelism (KPAR>1).                         |
|      This developmental code was originally  written by Paul Kent at ORNL,  |
|      and carefully double checked in Vienna.                                |
|      GW as well as linear response parallelism added by Martijn Marsman     |
|      and Georg Kresse.                                                      |
|      Carefully verify results versus KPAR=1.                                |
|      Report problems to Paul Kent and Vienna.                               |
|                                                                             |
 ----------------------------------------------------------------------------- 

 LDA part: xc-table for Pade appr. of Perdew
 found WAVECAR, reading the header
 POSCAR, INCAR and KPOINTS ok, starting setup
 FFT: planning ...
 reading WAVECAR
 the WAVECAR file was read successfully
 initial charge from wavefunction
 entering main loop
       N       E                     dE             d eps       ncg     rms          rms(c)
DAV:   1     0.137123616696E-01    0.13712E-01   -0.11973E-11  1136   0.297E-05
DAV:   2     0.137123616696E-01    0.00000E+00   -0.85964E-13  1088   0.701E-06
DAV:   3     0.137123616696E-01    0.00000E+00   -0.40527E-13  1136   0.241E-06
DAV:   4     0.137123616696E-01    0.00000E+00   -0.34614E-13  1056   0.111E-06
DAV:   5     0.137123616696E-01    0.00000E+00   -0.25617E-13  1112   0.573E-07    0.285E-06
DAV:   6     0.137123614097E-01   -0.25989E-09   -0.98448E-13  1056   0.614E-06
   1 F= -.88222214E-01 E0= -.88222214E-01  d E =0.000000E+00
 writing wavefunctions
 optical routines
 imaginary and real dielectric function
 recalculating local potential from charge density
 direction            1
 direction            2
 direction            3
