   1   1   0   0
  0.5789729E+02  0.4342346E-09  0.4342346E-09  0.4342346E-09  0.1000000E-15
  1.000000000000000E-004
  CAR 
 Og_FCC                                  
    158.71131983    -50.02659693  301      2.33183052      1.00000000
    -50.027  0.0000E+00  0.0000E+00
    -49.331  0.0000E+00  0.0000E+00
    -48.635  0.0000E+00  0.0000E+00
    -47.939  0.0000E+00  0.0000E+00
    -47.243  0.0000E+00  0.0000E+00
    -46.548  0.0000E+00  0.0000E+00
    -45.852  0.0000E+00  0.0000E+00
    -45.156  0.0000E+00  0.0000E+00
    -44.460  0.0000E+00  0.0000E+00
    -43.764  0.0000E+00  0.0000E+00
    -43.069  0.0000E+00  0.0000E+00
    -42.373  0.0000E+00  0.0000E+00
    -41.677  0.0000E+00  0.0000E+00
    -40.981  0.0000E+00  0.0000E+00
    -40.285  0.0000E+00  0.4000E+01
    -39.590  0.0000E+00  0.4000E+01
    -38.894  0.0000E+00  0.4000E+01
    -38.198  0.0000E+00  0.4000E+01
    -37.502  0.0000E+00  0.4000E+01
    -36.807  0.0000E+00  0.4000E+01
    -36.111  0.0000E+00  0.4000E+01
    -35.415  0.0000E+00  0.4000E+01
    -34.719  0.0000E+00  0.4000E+01
    -34.023  0.0000E+00  0.4000E+01
    -33.328  0.0000E+00  0.4000E+01
    -32.632  0.0000E+00  0.1000E+02
    -31.936  0.0000E+00  0.1000E+02
    -31.240  0.0000E+00  0.1000E+02
    -30.544  0.0000E+00  0.1000E+02
    -29.849  0.0000E+00  0.1000E+02
    -29.153  0.0000E+00  0.1000E+02
    -28.457  0.0000E+00  0.1000E+02
    -27.761  0.0000E+00  0.1000E+02
    -27.065  0.0000E+00  0.1000E+02
    -26.370  0.0000E+00  0.1000E+02
    -25.674  0.0000E+00  0.1000E+02
    -24.978  0.0000E+00  0.1200E+02
    -24.282  0.0000E+00  0.1200E+02
    -23.586  0.0000E+00  0.1200E+02
    -22.891  0.0000E+00  0.1200E+02
    -22.195  0.0000E+00  0.1200E+02
    -21.499  0.0000E+00  0.1200E+02
    -20.803  0.0000E+00  0.1200E+02
    -20.107  0.0000E+00  0.1200E+02
    -19.412  0.0000E+00  0.1200E+02
    -18.716  0.0000E+00  0.1200E+02
    -18.020  0.0000E+00  0.1200E+02
    -17.324  0.0000E+00  0.1200E+02
    -16.629  0.0000E+00  0.1200E+02
    -15.933  0.0000E+00  0.1200E+02
    -15.237  0.0000E+00  0.1200E+02
    -14.541  0.0000E+00  0.1200E+02
    -13.845  0.0000E+00  0.1200E+02
    -13.150  0.0000E+00  0.1200E+02
    -12.454  0.0000E+00  0.1200E+02
    -11.758  0.0000E+00  0.1200E+02
    -11.062  0.0000E+00  0.1200E+02
    -10.366  0.0000E+00  0.1400E+02
     -9.671  0.0000E+00  0.1400E+02
     -8.975  0.0000E+00  0.1400E+02
     -8.279  0.0000E+00  0.1400E+02
     -7.583  0.0000E+00  0.1400E+02
     -6.887  0.0000E+00  0.1400E+02
     -6.192  0.0000E+00  0.1400E+02
     -5.496  0.0000E+00  0.1400E+02
     -4.800  0.0000E+00  0.1400E+02
     -4.104  0.0000E+00  0.1400E+02
     -3.408  0.0000E+00  0.1400E+02
     -2.713  0.0000E+00  0.1400E+02
     -2.017  0.0000E+00  0.1400E+02
     -1.321  0.0000E+00  0.1406E+02
     -0.625  0.0000E+00  0.1575E+02
      0.071  0.0000E+00  0.1631E+02
      0.766  0.0000E+00  0.1719E+02
      1.462  0.0000E+00  0.1778E+02
      2.158  0.0000E+00  0.1800E+02
      2.854  0.0000E+00  0.1800E+02
      3.549  0.0000E+00  0.1801E+02
      4.245  0.0000E+00  0.1801E+02
      4.941  0.0000E+00  0.1801E+02
      5.637  0.0000E+00  0.1814E+02
      6.333  0.0000E+00  0.1828E+02
      7.028  0.0000E+00  0.1889E+02
      7.724  0.0000E+00  0.1978E+02
      8.420  0.0000E+00  0.2008E+02
      9.116  0.0000E+00  0.2119E+02
      9.812  0.0000E+00  0.2203E+02
     10.507  0.0000E+00  0.2256E+02
     11.203  0.1710E-02  0.2383E+02
     11.899  0.0000E+00  0.2489E+02
     12.595  0.0000E+00  0.2598E+02
     13.291  0.0000E+00  0.2659E+02
     13.986  0.1597E+00  0.2790E+02
     14.682  0.0000E+00  0.2940E+02
     15.378  0.0000E+00  0.3047E+02
     16.074  0.0000E+00  0.3102E+02
     16.770  0.0000E+00  0.3219E+02
     17.465  0.0000E+00  0.3330E+02
     18.161  0.0000E+00  0.3492E+02
     18.857  0.0000E+00  0.3690E+02
     19.553  0.6654E-01  0.4001E+02
     20.249  0.0000E+00  0.4369E+02
     20.944  0.0000E+00  0.4567E+02
     21.640  0.0000E+00  0.4646E+02
     22.336  0.0000E+00  0.4762E+02
     23.032  0.0000E+00  0.4835E+02
     23.727  0.3193E+00  0.5000E+02
     24.423  0.0000E+00  0.5133E+02
     25.119  0.3187E+00  0.5377E+02
     25.815  0.7984E-01  0.5621E+02
     26.511  0.0000E+00  0.5750E+02
     27.206  0.0000E+00  0.5849E+02
     27.902  0.0000E+00  0.6007E+02
     28.598  0.0000E+00  0.6139E+02
     29.294  0.0000E+00  0.6224E+02
     29.990  0.0000E+00  0.6426E+02
     30.685  0.0000E+00  0.6510E+02
     31.381  0.0000E+00  0.6694E+02
     32.077  0.8710E-01  0.6941E+02
     32.773  0.0000E+00  0.7146E+02
     33.469  0.0000E+00  0.7308E+02
     34.164  0.0000E+00  0.7444E+02
     34.860  0.0000E+00  0.7594E+02
     35.556  0.0000E+00  0.7839E+02
     36.252  0.0000E+00  0.8030E+02
     36.948  0.1065E+00  0.8230E+02
     37.643  0.0000E+00  0.8377E+02
     38.339  0.0000E+00  0.8549E+02
     39.035  0.0000E+00  0.8635E+02
     39.731  0.0000E+00  0.8876E+02
     40.427  0.3240E+00  0.9013E+02
     41.122  0.2612E-01  0.9176E+02
     41.818  0.0000E+00  0.9392E+02
     42.514  0.6388E+00  0.9623E+02
     43.210  0.2894E-08  0.9808E+02
     43.905  0.0000E+00  0.9969E+02
     44.601  0.0000E+00  0.1013E+03
     45.297  0.3194E+00  0.1035E+03
     45.993  0.0000E+00  0.1056E+03
     46.689  0.0000E+00  0.1079E+03
     47.384  0.0000E+00  0.1098E+03
     48.080  0.0000E+00  0.1116E+03
     48.776  0.0000E+00  0.1133E+03
     49.472  0.0000E+00  0.1153E+03
     50.168  0.0000E+00  0.1174E+03
     50.863  0.0000E+00  0.1193E+03
     51.559  0.0000E+00  0.1218E+03
     52.255  0.0000E+00  0.1247E+03
     52.951  0.0000E+00  0.1266E+03
     53.647  0.1065E+00  0.1280E+03
     54.342  0.0000E+00  0.1304E+03
     55.038  0.6628E-14  0.1326E+03
     55.734  0.0000E+00  0.1346E+03
     56.430  0.0000E+00  0.1372E+03
     57.126  0.0000E+00  0.1387E+03
     57.821  0.0000E+00  0.1411E+03
     58.517  0.0000E+00  0.1431E+03
     59.213  0.0000E+00  0.1455E+03
     59.909  0.0000E+00  0.1475E+03
     60.604  0.3194E+00  0.1501E+03
     61.300  0.0000E+00  0.1518E+03
     61.996  0.5618E-15  0.1540E+03
     62.692  0.0000E+00  0.1563E+03
     63.388  0.3196E-09  0.1583E+03
     64.083  0.0000E+00  0.1607E+03
     64.779  0.0000E+00  0.1635E+03
     65.475  0.0000E+00  0.1655E+03
     66.171  0.4458E-07  0.1687E+03
     66.867  0.0000E+00  0.1706E+03
     67.562  0.8953E-03  0.1727E+03
     68.258  0.0000E+00  0.1750E+03
     68.954  0.0000E+00  0.1773E+03
     69.650  0.0000E+00  0.1792E+03
     70.346  0.2221E-12  0.1817E+03
     71.041  0.0000E+00  0.1846E+03
     71.737  0.1847E-16  0.1869E+03
     72.433  0.0000E+00  0.1892E+03
     73.129  0.1962E-01  0.1919E+03
     73.825  0.3694E-17  0.1945E+03
     74.520  0.0000E+00  0.1966E+03
     75.216  0.0000E+00  0.1992E+03
     75.912  0.0000E+00  0.2019E+03
     76.608  0.0000E+00  0.2042E+03
     77.304  0.1316E-01  0.2065E+03
     77.999  0.3735E+00  0.2098E+03
     78.695  0.0000E+00  0.2137E+03
     79.391  0.0000E+00  0.2160E+03
     80.087  0.0000E+00  0.2185E+03
     80.782  0.3041E+00  0.2210E+03
     81.478  0.0000E+00  0.2241E+03
     82.174  0.0000E+00  0.2268E+03
     82.870  0.0000E+00  0.2289E+03
     83.566  0.5323E-01  0.2312E+03
     84.261  0.0000E+00  0.2338E+03
     84.957  0.0000E+00  0.2364E+03
     85.653  0.3194E+00  0.2389E+03
     86.349  0.0000E+00  0.2416E+03
     87.045  0.0000E+00  0.2444E+03
     87.740  0.1595E+00  0.2467E+03
     88.436  0.0000E+00  0.2502E+03
     89.132  0.0000E+00  0.2526E+03
     89.828  0.0000E+00  0.2550E+03
     90.524  0.0000E+00  0.2581E+03
     91.219  0.0000E+00  0.2606E+03
     91.915  0.0000E+00  0.2634E+03
     92.611  0.0000E+00  0.2656E+03
     93.307  0.7984E-01  0.2683E+03
     94.003  0.0000E+00  0.2711E+03
     94.698  0.2054E+00  0.2739E+03
     95.394  0.0000E+00  0.2761E+03
     96.090  0.5671E-01  0.2784E+03
     96.786  0.0000E+00  0.2820E+03
     97.482  0.2371E+00  0.2855E+03
     98.177  0.6938E+00  0.2888E+03
     98.873  0.4701E+00  0.2915E+03
     99.569  0.0000E+00  0.2938E+03
    100.265  0.0000E+00  0.2960E+03
    100.960  0.3471E+00  0.2993E+03
    101.656  0.0000E+00  0.3017E+03
    102.352  0.1097E-05  0.3038E+03
    103.048  0.0000E+00  0.3066E+03
    103.744  0.0000E+00  0.3090E+03
    104.439  0.0000E+00  0.3122E+03
    105.135  0.0000E+00  0.3156E+03
    105.831  0.1241E-07  0.3194E+03
    106.527  0.3194E+00  0.3220E+03
    107.223  0.3317E-09  0.3250E+03
    107.918  0.5882E-13  0.3281E+03
    108.614  0.8166E-01  0.3305E+03
    109.310  0.4724E-01  0.3332E+03
    110.006  0.0000E+00  0.3372E+03
    110.702  0.0000E+00  0.3395E+03
    111.397  0.0000E+00  0.3420E+03
    112.093  0.0000E+00  0.3443E+03
    112.789  0.1784E-02  0.3472E+03
    113.485  0.0000E+00  0.3500E+03
    114.181  0.0000E+00  0.3522E+03
    114.876  0.1956E+00  0.3555E+03
    115.572  0.5323E-01  0.3591E+03
    116.268  0.3194E+00  0.3632E+03
    116.964  0.4791E+00  0.3672E+03
    117.660  0.0000E+00  0.3709E+03
    118.355  0.3194E+00  0.3736E+03
    119.051  0.0000E+00  0.3757E+03
    119.747  0.1911E-01  0.3776E+03
    120.443  0.3773E-01  0.3813E+03
    121.138  0.0000E+00  0.3844E+03
    121.834  0.2850E-05  0.3863E+03
    122.530  0.0000E+00  0.3901E+03
    123.226  0.1706E-01  0.3925E+03
    123.922  0.0000E+00  0.3952E+03
    124.617  0.0000E+00  0.3979E+03
    125.313  0.5487E-01  0.4016E+03
    126.009  0.3194E+00  0.4058E+03
    126.705  0.5339E-01  0.4089E+03
    127.401  0.0000E+00  0.4118E+03
    128.096  0.2780E-05  0.4164E+03
    128.792  0.0000E+00  0.4204E+03
    129.488  0.3194E+00  0.4226E+03
    130.184  0.0000E+00  0.4254E+03
    130.880  0.0000E+00  0.4276E+03
    131.575  0.0000E+00  0.4313E+03
    132.271  0.0000E+00  0.4339E+03
    132.967  0.0000E+00  0.4367E+03
    133.663  0.0000E+00  0.4402E+03
    134.359  0.1596E+00  0.4430E+03
    135.054  0.0000E+00  0.4454E+03
    135.750  0.3992E-01  0.4489E+03
    136.446  0.0000E+00  0.4530E+03
    137.142  0.0000E+00  0.4571E+03
    137.838  0.0000E+00  0.4612E+03
    138.533  0.1597E+00  0.4639E+03
    139.229  0.0000E+00  0.4666E+03
    139.925  0.5019E-06  0.4702E+03
    140.621  0.0000E+00  0.4749E+03
    141.316  0.0000E+00  0.4780E+03
    142.012  0.1597E+00  0.4802E+03
    142.708  0.0000E+00  0.4835E+03
    143.404  0.0000E+00  0.4856E+03
    144.100  0.0000E+00  0.4886E+03
    144.795  0.6327E-02  0.4921E+03
    145.491  0.1597E+00  0.4955E+03
    146.187  0.7394E-14  0.4983E+03
    146.883  0.1065E+00  0.5018E+03
    147.579  0.1586E+00  0.5068E+03
    148.274  0.0000E+00  0.5097E+03
    148.970  0.0000E+00  0.5114E+03
    149.666  0.0000E+00  0.5120E+03
    150.362  0.0000E+00  0.5120E+03
    151.058  0.0000E+00  0.5120E+03
    151.753  0.0000E+00  0.5120E+03
    152.449  0.0000E+00  0.5120E+03
    153.145  0.0000E+00  0.5120E+03
    153.841  0.0000E+00  0.5120E+03
    154.537  0.0000E+00  0.5120E+03
    155.232  0.0000E+00  0.5120E+03
    155.928  0.0000E+00  0.5120E+03
    156.624  0.0000E+00  0.5120E+03
    157.320  0.0000E+00  0.5120E+03
    158.016  0.0000E+00  0.5120E+03
    158.711  0.0000E+00  0.5120E+03
