   1   1   0   0
  0.3721384E+02  0.3747484E-09  0.3747484E-09  0.3747484E-09  0.1000000E-15
  1.000000000000000E-004
  CAR 
 Og_FCC                                  
     16.97888326    -21.60999341  301     -4.98461904      1.00000000
    -21.610  0.0000E+00  0.0000E+00
    -21.481  0.0000E+00  0.0000E+00
    -21.353  0.0000E+00  0.0000E+00
    -21.224  0.0000E+00  0.0000E+00
    -21.095  0.0000E+00  0.0000E+00
    -20.967  0.0000E+00  0.0000E+00
    -20.838  0.0000E+00  0.0000E+00
    -20.710  0.0000E+00  0.0000E+00
    -20.581  0.0000E+00  0.0000E+00
    -20.452  0.0000E+00  0.0000E+00
    -20.324  0.0000E+00  0.0000E+00
    -20.195  0.0000E+00  0.0000E+00
    -20.066  0.0000E+00  0.0000E+00
    -19.938  0.0000E+00  0.0000E+00
    -19.809  0.3974E-01  0.5759E-01
    -19.681  0.4587E+00  0.5780E+00
    -19.552  0.0000E+00  0.2000E+01
    -19.423  0.0000E+00  0.2000E+01
    -19.295  0.0000E+00  0.2000E+01
    -19.166  0.0000E+00  0.2000E+01
    -19.037  0.0000E+00  0.2000E+01
    -18.909  0.0000E+00  0.2000E+01
    -18.780  0.0000E+00  0.2000E+01
    -18.652  0.0000E+00  0.2000E+01
    -18.523  0.0000E+00  0.2000E+01
    -18.394  0.0000E+00  0.2000E+01
    -18.266  0.0000E+00  0.2000E+01
    -18.137  0.0000E+00  0.2000E+01
    -18.008  0.0000E+00  0.2000E+01
    -17.880  0.0000E+00  0.2000E+01
    -17.751  0.0000E+00  0.2000E+01
    -17.622  0.0000E+00  0.2000E+01
    -17.494  0.0000E+00  0.2000E+01
    -17.365  0.0000E+00  0.2000E+01
    -17.237  0.0000E+00  0.2000E+01
    -17.108  0.0000E+00  0.2000E+01
    -16.979  0.0000E+00  0.2000E+01
    -16.851  0.0000E+00  0.2000E+01
    -16.722  0.0000E+00  0.2000E+01
    -16.593  0.0000E+00  0.2000E+01
    -16.465  0.0000E+00  0.2000E+01
    -16.336  0.0000E+00  0.2000E+01
    -16.208  0.0000E+00  0.2000E+01
    -16.079  0.0000E+00  0.2000E+01
    -15.950  0.0000E+00  0.2000E+01
    -15.822  0.0000E+00  0.2000E+01
    -15.693  0.0000E+00  0.2000E+01
    -15.564  0.0000E+00  0.2000E+01
    -15.436  0.0000E+00  0.2000E+01
    -15.307  0.0000E+00  0.2000E+01
    -15.179  0.0000E+00  0.2000E+01
    -15.050  0.0000E+00  0.2000E+01
    -14.921  0.0000E+00  0.2000E+01
    -14.793  0.0000E+00  0.2000E+01
    -14.664  0.0000E+00  0.2000E+01
    -14.535  0.0000E+00  0.2000E+01
    -14.407  0.0000E+00  0.2000E+01
    -14.278  0.0000E+00  0.2000E+01
    -14.149  0.0000E+00  0.2000E+01
    -14.021  0.0000E+00  0.2000E+01
    -13.892  0.0000E+00  0.2000E+01
    -13.764  0.0000E+00  0.2000E+01
    -13.635  0.0000E+00  0.2000E+01
    -13.506  0.0000E+00  0.2000E+01
    -13.378  0.0000E+00  0.2000E+01
    -13.249  0.0000E+00  0.2000E+01
    -13.120  0.0000E+00  0.2000E+01
    -12.992  0.0000E+00  0.2000E+01
    -12.863  0.0000E+00  0.2000E+01
    -12.735  0.0000E+00  0.2000E+01
    -12.606  0.0000E+00  0.2000E+01
    -12.477  0.0000E+00  0.2000E+01
    -12.349  0.0000E+00  0.2000E+01
    -12.220  0.0000E+00  0.2000E+01
    -12.091  0.0000E+00  0.2000E+01
    -11.963  0.0000E+00  0.2000E+01
    -11.834  0.0000E+00  0.2000E+01
    -11.706  0.0000E+00  0.2000E+01
    -11.577  0.0000E+00  0.2000E+01
    -11.448  0.0000E+00  0.2000E+01
    -11.320  0.0000E+00  0.2000E+01
    -11.191  0.0000E+00  0.2000E+01
    -11.062  0.0000E+00  0.2000E+01
    -10.934  0.0000E+00  0.2000E+01
    -10.805  0.0000E+00  0.2000E+01
    -10.676  0.0000E+00  0.2000E+01
    -10.548  0.0000E+00  0.2000E+01
    -10.419  0.0000E+00  0.2000E+01
    -10.291  0.0000E+00  0.2000E+01
    -10.162  0.0000E+00  0.2000E+01
    -10.033  0.0000E+00  0.2000E+01
     -9.905  0.0000E+00  0.2000E+01
     -9.776  0.0000E+00  0.2000E+01
     -9.647  0.0000E+00  0.2000E+01
     -9.519  0.0000E+00  0.2000E+01
     -9.390  0.0000E+00  0.2000E+01
     -9.262  0.0000E+00  0.2000E+01
     -9.133  0.0000E+00  0.2000E+01
     -9.004  0.0000E+00  0.2000E+01
     -8.876  0.0000E+00  0.2000E+01
     -8.747  0.0000E+00  0.2000E+01
     -8.618  0.0000E+00  0.2000E+01
     -8.490  0.0000E+00  0.2000E+01
     -8.361  0.0000E+00  0.2000E+01
     -8.233  0.0000E+00  0.2000E+01
     -8.104  0.0000E+00  0.2000E+01
     -7.975  0.0000E+00  0.2000E+01
     -7.847  0.0000E+00  0.2000E+01
     -7.718  0.0000E+00  0.2000E+01
     -7.589  0.0000E+00  0.2000E+01
     -7.461  0.0000E+00  0.2000E+01
     -7.332  0.0000E+00  0.2000E+01
     -7.203  0.0000E+00  0.2000E+01
     -7.075  0.0000E+00  0.2000E+01
     -6.946  0.0000E+00  0.2000E+01
     -6.818  0.0000E+00  0.2000E+01
     -6.689  0.0000E+00  0.2000E+01
     -6.560  0.0000E+00  0.2000E+01
     -6.432  0.0000E+00  0.2000E+01
     -6.303  0.0000E+00  0.2187E+01
     -6.174  0.0000E+00  0.2431E+01
     -6.046  0.0000E+00  0.3341E+01
     -5.917  0.2720E+00  0.3703E+01
     -5.789  0.0000E+00  0.3983E+01
     -5.660  0.0000E+00  0.4752E+01
     -5.531  0.4831E-14  0.4927E+01
     -5.403  0.1088E+01  0.6268E+01
     -5.274  0.2450E+00  0.7361E+01
     -5.145  0.7723E+00  0.7936E+01
     -5.017  0.0000E+00  0.8000E+01
     -4.888  0.0000E+00  0.8000E+01
     -4.760  0.0000E+00  0.8000E+01
     -4.631  0.0000E+00  0.8000E+01
     -4.502  0.0000E+00  0.8000E+01
     -4.374  0.0000E+00  0.8000E+01
     -4.245  0.0000E+00  0.8000E+01
     -4.116  0.0000E+00  0.8000E+01
     -3.988  0.0000E+00  0.8000E+01
     -3.859  0.0000E+00  0.8000E+01
     -3.730  0.0000E+00  0.8000E+01
     -3.602  0.0000E+00  0.8000E+01
     -3.473  0.0000E+00  0.8000E+01
     -3.345  0.0000E+00  0.8000E+01
     -3.216  0.0000E+00  0.8000E+01
     -3.087  0.0000E+00  0.8000E+01
     -2.959  0.0000E+00  0.8000E+01
     -2.830  0.0000E+00  0.8000E+01
     -2.701  0.0000E+00  0.8000E+01
     -2.573  0.0000E+00  0.8000E+01
     -2.444  0.0000E+00  0.8000E+01
     -2.316  0.0000E+00  0.8000E+01
     -2.187  0.0000E+00  0.8000E+01
     -2.058  0.0000E+00  0.8000E+01
     -1.930  0.0000E+00  0.8000E+01
     -1.801  0.0000E+00  0.8000E+01
     -1.672  0.0000E+00  0.8000E+01
     -1.544  0.0000E+00  0.8000E+01
     -1.415  0.0000E+00  0.8000E+01
     -1.287  0.0000E+00  0.8000E+01
     -1.158  0.0000E+00  0.8000E+01
     -1.029  0.0000E+00  0.8000E+01
     -0.901  0.0000E+00  0.8000E+01
     -0.772  0.0000E+00  0.8000E+01
     -0.643  0.0000E+00  0.8000E+01
     -0.515  0.0000E+00  0.8000E+01
     -0.386  0.0000E+00  0.8000E+01
     -0.257  0.0000E+00  0.8000E+01
     -0.129  0.0000E+00  0.8000E+01
     -0.000  0.0000E+00  0.8000E+01
      0.128  0.0000E+00  0.8000E+01
      0.257  0.0000E+00  0.8000E+01
      0.386  0.0000E+00  0.8000E+01
      0.514  0.0000E+00  0.8000E+01
      0.643  0.0000E+00  0.8000E+01
      0.772  0.0000E+00  0.8000E+01
      0.900  0.0000E+00  0.8000E+01
      1.029  0.0000E+00  0.8000E+01
      1.157  0.0000E+00  0.8000E+01
      1.286  0.0000E+00  0.8000E+01
      1.415  0.0000E+00  0.8000E+01
      1.543  0.0000E+00  0.8000E+01
      1.672  0.0000E+00  0.8000E+01
      1.801  0.0000E+00  0.8000E+01
      1.929  0.0000E+00  0.8000E+01
      2.058  0.0000E+00  0.8000E+01
      2.186  0.0000E+00  0.8000E+01
      2.315  0.0000E+00  0.8000E+01
      2.444  0.0000E+00  0.8000E+01
      2.572  0.0000E+00  0.8000E+01
      2.701  0.0000E+00  0.8000E+01
      2.830  0.0000E+00  0.8000E+01
      2.958  0.0000E+00  0.8000E+01
      3.087  0.0000E+00  0.8000E+01
      3.216  0.0000E+00  0.8000E+01
      3.344  0.0000E+00  0.8000E+01
      3.473  0.0000E+00  0.8000E+01
      3.601  0.0000E+00  0.8006E+01
      3.730  0.0000E+00  0.8006E+01
      3.859  0.0000E+00  0.8006E+01
      3.987  0.0000E+00  0.8006E+01
      4.116  0.0000E+00  0.8052E+01
      4.245  0.2720E+00  0.8087E+01
      4.373  0.0000E+00  0.8087E+01
      4.502  0.0000E+00  0.8087E+01
      4.630  0.0000E+00  0.8087E+01
      4.759  0.0000E+00  0.8087E+01
      4.888  0.0000E+00  0.8157E+01
      5.016  0.0000E+00  0.8157E+01
      5.145  0.0000E+00  0.8157E+01
      5.274  0.0000E+00  0.8297E+01
      5.402  0.0000E+00  0.8344E+01
      5.531  0.0000E+00  0.8344E+01
      5.659  0.0000E+00  0.8344E+01
      5.788  0.0000E+00  0.8379E+01
      5.917  0.0000E+00  0.8379E+01
      6.045  0.0000E+00  0.8379E+01
      6.174  0.0000E+00  0.8519E+01
      6.303  0.0000E+00  0.8741E+01
      6.431  0.0000E+00  0.9020E+01
      6.560  0.0000E+00  0.9090E+01
      6.689  0.0000E+00  0.9090E+01
      6.817  0.0000E+00  0.9230E+01
      6.946  0.0000E+00  0.9370E+01
      7.074  0.0000E+00  0.9370E+01
      7.203  0.0000E+00  0.9370E+01
      7.332  0.0000E+00  0.1000E+02
      7.460  0.0000E+00  0.1000E+02
      7.589  0.0000E+00  0.1000E+02
      7.718  0.0000E+00  0.1000E+02
      7.846  0.0000E+00  0.1010E+02
      7.975  0.0000E+00  0.1024E+02
      8.103  0.0000E+00  0.1052E+02
      8.232  0.1088E+01  0.1094E+02
      8.361  0.0000E+00  0.1115E+02
      8.489  0.0000E+00  0.1133E+02
      8.618  0.1068E+01  0.1151E+02
      8.747  0.0000E+00  0.1166E+02
      8.875  0.0000E+00  0.1166E+02
      9.004  0.0000E+00  0.1191E+02
      9.132  0.0000E+00  0.1233E+02
      9.261  0.0000E+00  0.1233E+02
      9.390  0.0000E+00  0.1296E+02
      9.518  0.0000E+00  0.1296E+02
      9.647  0.0000E+00  0.1296E+02
      9.776  0.0000E+00  0.1342E+02
      9.904  0.0000E+00  0.1352E+02
     10.033  0.0000E+00  0.1360E+02
     10.162  0.0000E+00  0.1360E+02
     10.290  0.0000E+00  0.1360E+02
     10.419  0.0000E+00  0.1384E+02
     10.547  0.0000E+00  0.1391E+02
     10.676  0.0000E+00  0.1406E+02
     10.805  0.0000E+00  0.1416E+02
     10.933  0.0000E+00  0.1453E+02
     11.062  0.0000E+00  0.1460E+02
     11.191  0.6866E-10  0.1460E+02
     11.319  0.5440E+00  0.1530E+02
     11.448  0.0000E+00  0.1530E+02
     11.576  0.6039E-16  0.1530E+02
     11.705  0.0000E+00  0.1569E+02
     11.834  0.0000E+00  0.1569E+02
     11.962  0.0000E+00  0.1569E+02
     12.091  0.0000E+00  0.1603E+02
     12.220  0.0000E+00  0.1617E+02
     12.348  0.0000E+00  0.1631E+02
     12.477  0.0000E+00  0.1631E+02
     12.605  0.0000E+00  0.1655E+02
     12.734  0.0000E+00  0.1655E+02
     12.863  0.0000E+00  0.1655E+02
     12.991  0.0000E+00  0.1665E+02
     13.120  0.0000E+00  0.1679E+02
     13.249  0.3911E-12  0.1697E+02
     13.377  0.0000E+00  0.1704E+02
     13.506  0.2111E+01  0.1745E+02
     13.635  0.0000E+00  0.1760E+02
     13.763  0.0000E+00  0.1774E+02
     13.892  0.0000E+00  0.1784E+02
     14.020  0.0000E+00  0.1798E+02
     14.149  0.0000E+00  0.1819E+02
     14.278  0.0000E+00  0.1829E+02
     14.406  0.0000E+00  0.1857E+02
     14.535  0.0000E+00  0.1902E+02
     14.664  0.0000E+00  0.1951E+02
     14.792  0.0000E+00  0.1958E+02
     14.921  0.0000E+00  0.1958E+02
     15.049  0.0000E+00  0.1986E+02
     15.178  0.0000E+00  0.1986E+02
     15.307  0.0000E+00  0.2000E+02
     15.435  0.0000E+00  0.2000E+02
     15.564  0.0000E+00  0.2000E+02
     15.693  0.0000E+00  0.2000E+02
     15.821  0.0000E+00  0.2000E+02
     15.950  0.0000E+00  0.2000E+02
     16.078  0.0000E+00  0.2000E+02
     16.207  0.0000E+00  0.2000E+02
     16.336  0.0000E+00  0.2000E+02
     16.464  0.0000E+00  0.2000E+02
     16.593  0.0000E+00  0.2000E+02
     16.722  0.0000E+00  0.2000E+02
     16.850  0.0000E+00  0.2000E+02
     16.979  0.0000E+00  0.2000E+02
