   1   1   0   0
  0.4928368E+02  0.4115343E-09  0.4115343E-09  0.4115343E-09  0.1000000E-15
  1.000000000000000E-004
  CAR 
 Og_FCC                                  
     71.81161473    -24.09595092  301     -4.43489996      1.00000000
    -24.096  0.0000E+00  0.0000E+00
    -23.776  0.0000E+00  0.0000E+00
    -23.457  0.0000E+00  0.0000E+00
    -23.137  0.0000E+00  0.0000E+00
    -22.817  0.0000E+00  0.0000E+00
    -22.497  0.0000E+00  0.0000E+00
    -22.178  0.0000E+00  0.0000E+00
    -21.858  0.0000E+00  0.0000E+00
    -21.538  0.0000E+00  0.0000E+00
    -21.219  0.0000E+00  0.0000E+00
    -20.899  0.0000E+00  0.0000E+00
    -20.579  0.0000E+00  0.0000E+00
    -20.260  0.0000E+00  0.0000E+00
    -19.940  0.0000E+00  0.0000E+00
    -19.620  0.0000E+00  0.5463E+00
    -19.301  0.0000E+00  0.2000E+01
    -18.981  0.0000E+00  0.2000E+01
    -18.661  0.0000E+00  0.2000E+01
    -18.341  0.0000E+00  0.2000E+01
    -18.022  0.0000E+00  0.2000E+01
    -17.702  0.0000E+00  0.2000E+01
    -17.382  0.0000E+00  0.2000E+01
    -17.063  0.0000E+00  0.2000E+01
    -16.743  0.0000E+00  0.2000E+01
    -16.423  0.0000E+00  0.2000E+01
    -16.104  0.0000E+00  0.2000E+01
    -15.784  0.0000E+00  0.2000E+01
    -15.464  0.0000E+00  0.2000E+01
    -15.145  0.0000E+00  0.2000E+01
    -14.825  0.0000E+00  0.2000E+01
    -14.505  0.0000E+00  0.2000E+01
    -14.186  0.0000E+00  0.2000E+01
    -13.866  0.0000E+00  0.2000E+01
    -13.546  0.0000E+00  0.2000E+01
    -13.226  0.0000E+00  0.2000E+01
    -12.907  0.0000E+00  0.2000E+01
    -12.587  0.0000E+00  0.2000E+01
    -12.267  0.0000E+00  0.2000E+01
    -11.948  0.0000E+00  0.2000E+01
    -11.628  0.0000E+00  0.2000E+01
    -11.308  0.0000E+00  0.2000E+01
    -10.989  0.0000E+00  0.2000E+01
    -10.669  0.0000E+00  0.2000E+01
    -10.349  0.0000E+00  0.2000E+01
    -10.030  0.0000E+00  0.2000E+01
     -9.710  0.0000E+00  0.2000E+01
     -9.390  0.0000E+00  0.2000E+01
     -9.070  0.0000E+00  0.2000E+01
     -8.751  0.0000E+00  0.2000E+01
     -8.431  0.0000E+00  0.2000E+01
     -8.111  0.0000E+00  0.2000E+01
     -7.792  0.0000E+00  0.2000E+01
     -7.472  0.0000E+00  0.2000E+01
     -7.152  0.0000E+00  0.2000E+01
     -6.833  0.0000E+00  0.2000E+01
     -6.513  0.0000E+00  0.2000E+01
     -6.193  0.0000E+00  0.2000E+01
     -5.874  0.0000E+00  0.3065E+01
     -5.554  0.0000E+00  0.3861E+01
     -5.234  0.0000E+00  0.4685E+01
     -4.914  0.0000E+00  0.6444E+01
     -4.595  0.0000E+00  0.7907E+01
     -4.275  0.0000E+00  0.8000E+01
     -3.955  0.0000E+00  0.8000E+01
     -3.636  0.0000E+00  0.8000E+01
     -3.316  0.0000E+00  0.8000E+01
     -2.996  0.0000E+00  0.8000E+01
     -2.677  0.0000E+00  0.8000E+01
     -2.357  0.0000E+00  0.8000E+01
     -2.037  0.0000E+00  0.8000E+01
     -1.718  0.0000E+00  0.8000E+01
     -1.398  0.0000E+00  0.8000E+01
     -1.078  0.0000E+00  0.8000E+01
     -0.758  0.0000E+00  0.8000E+01
     -0.439  0.0000E+00  0.8000E+01
     -0.119  0.0000E+00  0.8000E+01
      0.201  0.0000E+00  0.8000E+01
      0.520  0.0000E+00  0.8000E+01
      0.840  0.0000E+00  0.8000E+01
      1.160  0.0000E+00  0.8000E+01
      1.479  0.0000E+00  0.8000E+01
      1.799  0.0000E+00  0.8000E+01
      2.119  0.0000E+00  0.8000E+01
      2.438  0.0000E+00  0.8000E+01
      2.758  0.0000E+00  0.8000E+01
      3.078  0.0000E+00  0.8000E+01
      3.398  0.0000E+00  0.8009E+01
      3.717  0.0000E+00  0.8009E+01
      4.037  0.0000E+00  0.8083E+01
      4.357  0.0000E+00  0.8139E+01
      4.676  0.0000E+00  0.8139E+01
      4.996  0.0000E+00  0.8250E+01
      5.316  0.0000E+00  0.8546E+01
      5.635  0.0000E+00  0.8630E+01
      5.955  0.0000E+00  0.8889E+01
      6.275  0.0000E+00  0.9667E+01
      6.594  0.0000E+00  0.9667E+01
      6.914  0.0000E+00  0.1003E+02
      7.234  0.0000E+00  0.1025E+02
      7.554  0.0000E+00  0.1097E+02
      7.873  0.0000E+00  0.1142E+02
      8.193  0.0000E+00  0.1197E+02
      8.513  0.0000E+00  0.1231E+02
      8.832  0.0000E+00  0.1269E+02
      9.152  0.0000E+00  0.1360E+02
      9.472  0.0000E+00  0.1379E+02
      9.791  0.0000E+00  0.1396E+02
     10.111  0.0000E+00  0.1458E+02
     10.431  0.6951E+00  0.1519E+02
     10.750  0.0000E+00  0.1553E+02
     11.070  0.0000E+00  0.1586E+02
     11.390  0.0000E+00  0.1586E+02
     11.710  0.1541E-02  0.1636E+02
     12.029  0.0000E+00  0.1656E+02
     12.349  0.0000E+00  0.1714E+02
     12.669  0.0000E+00  0.1756E+02
     12.988  0.0000E+00  0.1834E+02
     13.308  0.0000E+00  0.1857E+02
     13.628  0.0000E+00  0.1869E+02
     13.947  0.5594E-01  0.1878E+02
     14.267  0.0000E+00  0.1942E+02
     14.587  0.0000E+00  0.2008E+02
     14.906  0.0000E+00  0.2125E+02
     15.226  0.0000E+00  0.2236E+02
     15.546  0.0000E+00  0.2253E+02
     15.866  0.0000E+00  0.2261E+02
     16.185  0.0000E+00  0.2297E+02
     16.505  0.0000E+00  0.2297E+02
     16.825  0.0000E+00  0.2353E+02
     17.144  0.0000E+00  0.2439E+02
     17.464  0.6962E+00  0.2474E+02
     17.784  0.0000E+00  0.2533E+02
     18.103  0.0000E+00  0.2578E+02
     18.423  0.0000E+00  0.2672E+02
     18.743  0.0000E+00  0.2706E+02
     19.062  0.0000E+00  0.2757E+02
     19.382  0.0000E+00  0.2806E+02
     19.702  0.0000E+00  0.2844E+02
     20.022  0.0000E+00  0.2899E+02
     20.341  0.0000E+00  0.2932E+02
     20.661  0.0000E+00  0.2932E+02
     20.981  0.0000E+00  0.2972E+02
     21.300  0.0000E+00  0.3044E+02
     21.620  0.0000E+00  0.3078E+02
     21.940  0.0000E+00  0.3100E+02
     22.259  0.0000E+00  0.3180E+02
     22.579  0.0000E+00  0.3235E+02
     22.899  0.0000E+00  0.3319E+02
     23.218  0.2317E+00  0.3369E+02
     23.538  0.3476E+00  0.3387E+02
     23.858  0.6951E+00  0.3498E+02
     24.178  0.0000E+00  0.3509E+02
     24.497  0.0000E+00  0.3600E+02
     24.817  0.0000E+00  0.3644E+02
     25.137  0.0000E+00  0.3687E+02
     25.456  0.6950E+00  0.3780E+02
     25.776  0.0000E+00  0.3827E+02
     26.096  0.0000E+00  0.3867E+02
     26.415  0.0000E+00  0.3885E+02
     26.735  0.0000E+00  0.3952E+02
     27.055  0.0000E+00  0.3988E+02
     27.374  0.0000E+00  0.4062E+02
     27.694  0.0000E+00  0.4084E+02
     28.014  0.0000E+00  0.4212E+02
     28.334  0.0000E+00  0.4264E+02
     28.653  0.0000E+00  0.4331E+02
     28.973  0.0000E+00  0.4392E+02
     29.293  0.0000E+00  0.4494E+02
     29.612  0.2317E+00  0.4542E+02
     29.932  0.0000E+00  0.4594E+02
     30.252  0.8689E-01  0.4620E+02
     30.571  0.0000E+00  0.4651E+02
     30.891  0.0000E+00  0.4683E+02
     31.211  0.0000E+00  0.4772E+02
     31.530  0.0000E+00  0.4828E+02
     31.850  0.3476E+00  0.4897E+02
     32.170  0.6359E-09  0.4939E+02
     32.490  0.4908E-02  0.5064E+02
     32.809  0.0000E+00  0.5125E+02
     33.129  0.0000E+00  0.5218E+02
     33.449  0.0000E+00  0.5273E+02
     33.768  0.0000E+00  0.5295E+02
     34.088  0.0000E+00  0.5419E+02
     34.408  0.0000E+00  0.5464E+02
     34.727  0.0000E+00  0.5544E+02
     35.047  0.0000E+00  0.5551E+02
     35.367  0.0000E+00  0.5603E+02
     35.686  0.0000E+00  0.5647E+02
     36.006  0.0000E+00  0.5658E+02
     36.326  0.0000E+00  0.5687E+02
     36.646  0.0000E+00  0.5812E+02
     36.965  0.0000E+00  0.5910E+02
     37.285  0.1022E-02  0.6018E+02
     37.605  0.4586E-13  0.6072E+02
     37.924  0.0000E+00  0.6194E+02
     38.244  0.4064E-11  0.6313E+02
     38.564  0.0000E+00  0.6391E+02
     38.883  0.0000E+00  0.6444E+02
     39.203  0.0000E+00  0.6476E+02
     39.523  0.0000E+00  0.6543E+02
     39.842  0.1737E+00  0.6554E+02
     40.162  0.0000E+00  0.6617E+02
     40.482  0.0000E+00  0.6719E+02
     40.802  0.0000E+00  0.6725E+02
     41.121  0.0000E+00  0.6782E+02
     41.441  0.0000E+00  0.6871E+02
     41.761  0.5775E-12  0.6905E+02
     42.080  0.0000E+00  0.6982E+02
     42.400  0.0000E+00  0.7056E+02
     42.720  0.0000E+00  0.7142E+02
     43.039  0.0000E+00  0.7200E+02
     43.359  0.2036E-07  0.7324E+02
     43.679  0.0000E+00  0.7416E+02
     43.998  0.0000E+00  0.7494E+02
     44.318  0.0000E+00  0.7581E+02
     44.638  0.6951E+00  0.7668E+02
     44.957  0.0000E+00  0.7727E+02
     45.277  0.2817E+00  0.7836E+02
     45.597  0.9083E-01  0.7880E+02
     45.917  0.0000E+00  0.7969E+02
     46.236  0.3476E+00  0.8001E+02
     46.556  0.3476E+00  0.8044E+02
     46.876  0.1429E+00  0.8144E+02
     47.195  0.0000E+00  0.8186E+02
     47.515  0.0000E+00  0.8208E+02
     47.835  0.0000E+00  0.8256E+02
     48.154  0.2178E-02  0.8315E+02
     48.474  0.2050E-02  0.8398E+02
     48.794  0.0000E+00  0.8515E+02
     49.113  0.0000E+00  0.8603E+02
     49.433  0.0000E+00  0.8760E+02
     49.753  0.8561E-01  0.8851E+02
     50.073  0.3476E+00  0.8894E+02
     50.392  0.0000E+00  0.8982E+02
     50.712  0.0000E+00  0.9038E+02
     51.032  0.0000E+00  0.9116E+02
     51.351  0.3433E-04  0.9229E+02
     51.671  0.0000E+00  0.9284E+02
     51.991  0.0000E+00  0.9361E+02
     52.310  0.0000E+00  0.9422E+02
     52.630  0.1738E+00  0.9531E+02
     52.950  0.0000E+00  0.9589E+02
     53.269  0.6736E+00  0.9683E+02
     53.589  0.0000E+00  0.9739E+02
     53.909  0.2232E-01  0.9820E+02
     54.229  0.0000E+00  0.9897E+02
     54.548  0.5156E-02  0.9942E+02
     54.868  0.0000E+00  0.9997E+02
     55.188  0.0000E+00  0.1006E+03
     55.507  0.0000E+00  0.1012E+03
     55.827  0.0000E+00  0.1023E+03
     56.147  0.0000E+00  0.1027E+03
     56.466  0.6706E+00  0.1039E+03
     56.786  0.1738E+00  0.1051E+03
     57.106  0.0000E+00  0.1060E+03
     57.425  0.1207E-13  0.1068E+03
     57.745  0.0000E+00  0.1076E+03
     58.065  0.0000E+00  0.1079E+03
     58.385  0.0000E+00  0.1094E+03
     58.704  0.0000E+00  0.1102E+03
     59.024  0.0000E+00  0.1114E+03
     59.344  0.0000E+00  0.1121E+03
     59.663  0.0000E+00  0.1128E+03
     59.983  0.1159E+00  0.1134E+03
     60.303  0.8810E-01  0.1143E+03
     60.622  0.2363E+00  0.1149E+03
     60.942  0.6951E+00  0.1160E+03
     61.262  0.0000E+00  0.1167E+03
     61.581  0.6907E+00  0.1182E+03
     61.901  0.0000E+00  0.1183E+03
     62.221  0.0000E+00  0.1192E+03
     62.541  0.0000E+00  0.1203E+03
     62.860  0.0000E+00  0.1208E+03
     63.180  0.0000E+00  0.1210E+03
     63.500  0.0000E+00  0.1215E+03
     63.819  0.0000E+00  0.1227E+03
     64.139  0.0000E+00  0.1235E+03
     64.459  0.0000E+00  0.1251E+03
     64.778  0.1738E+00  0.1256E+03
     65.098  0.0000E+00  0.1264E+03
     65.418  0.0000E+00  0.1270E+03
     65.737  0.0000E+00  0.1275E+03
     66.057  0.0000E+00  0.1278E+03
     66.377  0.0000E+00  0.1279E+03
     66.697  0.0000E+00  0.1279E+03
     67.016  0.0000E+00  0.1279E+03
     67.336  0.0000E+00  0.1279E+03
     67.656  0.0000E+00  0.1280E+03
     67.975  0.0000E+00  0.1280E+03
     68.295  0.0000E+00  0.1280E+03
     68.615  0.0000E+00  0.1280E+03
     68.934  0.0000E+00  0.1280E+03
     69.254  0.0000E+00  0.1280E+03
     69.574  0.0000E+00  0.1280E+03
     69.893  0.0000E+00  0.1280E+03
     70.213  0.0000E+00  0.1280E+03
     70.533  0.0000E+00  0.1280E+03
     70.853  0.0000E+00  0.1280E+03
     71.172  0.0000E+00  0.1280E+03
     71.492  0.0000E+00  0.1280E+03
     71.812  0.0000E+00  0.1280E+03
