    1    1    1    1
  0.4928368E+02  0.4115343E-09  0.4115343E-09  0.4115343E-09  0.1000000E-15
  1.000000000000000E-004
  CAR 
 Og_FCC                                  
      8    216    128
 
  0.0000000E+00  0.0000000E+00  0.0000000E+00  0.4629630E-02
    1      -19.736516   1.000000
    2      -19.736516   1.000000
    3       -5.209478   1.000000
    4       -5.209478   1.000000
    5       -4.515141   1.000000
    6       -4.515141   1.000000
    7       -4.515131   1.000000
    8       -4.515131   1.000000
    9        3.268533   0.000000
   10        3.268534   0.000000
   11        9.807556   0.000000
   12        9.807556   0.000000
   13        9.807571   0.000000
   14        9.807572   0.000000
   15        9.825151   0.000000
   16        9.825152   0.000000
   17       12.227136   0.000000
   18       12.227136   0.000000
   19       12.227137   0.000000
   20       12.227137   0.000000
   21       13.220208   0.000000
   22       13.220208   0.000000
   23       15.800487   0.000000
   24       15.800487   0.000000
   25       15.835018   0.000000
   26       15.835018   0.000000
   27       15.835061   0.000000
   28       15.835062   0.000000
   29       17.097945   0.000000
   30       17.097945   0.000000
   31       25.853364   0.000000
   32       25.853364   0.000000
   33       26.307206   0.000000
   34       26.307206   0.000000
   35       26.307222   0.000000
   36       26.307223   0.000000
   37       26.918546   0.000000
   38       26.918546   0.000000
   39       26.918568   0.000000
   40       26.918569   0.000000
   41       26.973160   0.000000
   42       26.973160   0.000000
   43       30.207887   0.000000
   44       30.207888   0.000000
   45       30.207891   0.000000
   46       30.207892   0.000000
   47       31.712559   0.000000
   48       31.712560   0.000000
   49       31.712564   0.000000
   50       31.712564   0.000000
   51       31.712670   0.000000
   52       31.712670   0.000000
   53       32.014386   0.000000
   54       32.014388   0.000000
   55       40.448000   0.000000
   56       40.448001   0.000000
   57       40.448016   0.000000
   58       40.448016   0.000000
   59       40.773853   0.000000
   60       40.773853   0.000000
   61       40.907590   0.000000
   62       40.907590   0.000000
   63       40.907623   0.000000
   64       40.907624   0.000000
   65       42.294277   0.000000
   66       42.294278   0.000000
   67       42.831238   0.000000
   68       42.831239   0.000000
   69       42.831276   0.000000
   70       42.831276   0.000000
   71       42.859576   0.000000
   72       42.859576   0.000000
   73       43.529142   0.000000
   74       43.529143   0.000000
   75       43.613259   0.000000
   76       43.613259   0.000000
   77       43.613267   0.000000
   78       43.613267   0.000000
   79       46.420765   0.000000
   80       46.420766   0.000000
   81       46.545654   0.000000
   82       46.545655   0.000000
   83       46.545665   0.000000
   84       46.545666   0.000000
   85       46.545845   0.000000
   86       46.545846   0.000000
   87       47.778615   0.000000
   88       47.778616   0.000000
   89       47.778688   0.000000
   90       47.778689   0.000000
   91       47.778693   0.000000
   92       47.778694   0.000000
   93       48.919710   0.000000
   94       48.919710   0.000000
   95       48.919716   0.000000
   96       48.919717   0.000000
   97       48.919846   0.000000
   98       48.919847   0.000000
   99       49.778515   0.000000
  100       49.778516   0.000000
  101       49.778518   0.000000
  102       49.778519   0.000000
  103       51.882394   0.000000
  104       51.882395   0.000000
  105       52.488331   0.000000
  106       52.488332   0.000000
  107       52.488393   0.000000
  108       52.488393   0.000000
  109       52.491030   0.000000
  110       52.491031   0.000000
  111       52.682729   0.000000
  112       52.682730   0.000000
  113       52.752801   0.000000
  114       52.752801   0.000000
  115       52.767544   0.000000
  116       52.767544   0.000000
  117       52.767652   0.000000
  118       52.767653   0.000000
  119       66.528342   0.000000
  120       66.528342   0.000000
  121       66.528343   0.000000
  122       66.528343   0.000000
  123       67.101729   0.000000
  124       67.101730   0.000000
  125       67.200992   0.000000
  126       67.200992   0.000000
  127       67.201014   0.000000
  128       67.201015   0.000000
 
  0.1666667E+00 -0.1222443E-16 -0.6938894E-17  0.4629630E-02
    1      -19.701901   1.000000
    2      -19.701901   1.000000
    3       -5.371253   1.000000
    4       -5.371253   1.000000
    5       -4.736659   1.000000
    6       -4.736659   1.000000
    7       -4.552844   1.000000
    8       -4.552844   1.000000
    9        3.948477   0.000000
   10        3.948477   0.000000
   11        8.897167   0.000000
   12        8.897168   0.000000
   13       10.017270   0.000000
   14       10.017270   0.000000
   15       10.033737   0.000000
   16       10.033737   0.000000
   17       11.711287   0.000000
   18       11.711287   0.000000
   19       11.722507   0.000000
   20       11.722508   0.000000
   21       13.827556   0.000000
   22       13.827557   0.000000
   23       15.306103   0.000000
   24       15.306104   0.000000
   25       17.442415   0.000000
   26       17.442415   0.000000
   27       17.465819   0.000000
   28       17.465819   0.000000
   29       19.678994   0.000000
   30       19.678994   0.000000
   31       22.207535   0.000000
   32       22.207535   0.000000
   33       23.215356   0.000000
   34       23.215356   0.000000
   35       23.328467   0.000000
   36       23.328467   0.000000
   37       27.476370   0.000000
   38       27.476371   0.000000
   39       27.594698   0.000000
   40       27.594698   0.000000
   41       29.132696   0.000000
   42       29.132696   0.000000
   43       29.414888   0.000000
   44       29.414888   0.000000
   45       29.417388   0.000000
   46       29.417388   0.000000
   47       31.978321   0.000000
   48       31.978321   0.000000
   49       34.050159   0.000000
   50       34.050160   0.000000
   51       34.712462   0.000000
   52       34.712462   0.000000
   53       34.736303   0.000000
   54       34.736303   0.000000
   55       36.771280   0.000000
   56       36.771281   0.000000
   57       37.249869   0.000000
   58       37.249869   0.000000
   59       37.286733   0.000000
   60       37.286733   0.000000
   61       39.875214   0.000000
   62       39.875214   0.000000
   63       40.314795   0.000000
   64       40.314795   0.000000
   65       40.328010   0.000000
   66       40.328010   0.000000
   67       42.198079   0.000000
   68       42.198079   0.000000
   69       42.207982   0.000000
   70       42.207982   0.000000
   71       42.333028   0.000000
   72       42.333028   0.000000
   73       43.140072   0.000000
   74       43.140072   0.000000
   75       44.151396   0.000000
   76       44.151397   0.000000
   77       44.174350   0.000000
   78       44.174351   0.000000
   79       44.551115   0.000000
   80       44.551116   0.000000
   81       45.575957   0.000000
   82       45.575957   0.000000
   83       45.605062   0.000000
   84       45.605062   0.000000
   85       46.648927   0.000000
   86       46.648927   0.000000
   87       48.707768   0.000000
   88       48.707768   0.000000
   89       48.710352   0.000000
   90       48.710353   0.000000
   91       48.847711   0.000000
   92       48.847711   0.000000
   93       49.374117   0.000000
   94       49.374118   0.000000
   95       49.383406   0.000000
   96       49.383406   0.000000
   97       51.316781   0.000000
   98       51.316781   0.000000
   99       51.653093   0.000000
  100       51.653094   0.000000
  101       51.841366   0.000000
  102       51.841366   0.000000
  103       51.843050   0.000000
  104       51.843050   0.000000
  105       52.042282   0.000000
  106       52.042283   0.000000
  107       55.444655   0.000000
  108       55.444655   0.000000
  109       55.444995   0.000000
  110       55.444995   0.000000
  111       55.865810   0.000000
  112       55.865810   0.000000
  113       56.441006   0.000000
  114       56.441007   0.000000
  115       56.444131   0.000000
  116       56.444132   0.000000
  117       61.237657   0.000000
  118       61.237657   0.000000
  119       61.292417   0.000000
  120       61.292417   0.000000
  121       61.507538   0.000000
  122       61.507539   0.000000
  123       62.980788   0.000000
  124       62.980788   0.000000
  125       65.444788   0.000000
  126       65.444788   0.000000
  127       65.460820   0.000000
  128       65.460820   0.000000
 
  0.3333333E+00  0.3306717E-17  0.0000000E+00  0.4629630E-02
    1      -19.631274   1.000000
    2      -19.631273   1.000000
    3       -5.816220   1.000000
    4       -5.816220   1.000000
    5       -4.963515   1.000000
    6       -4.963515   1.000000
    7       -4.626029   1.000000
    8       -4.626029   1.000000
    9        5.225953   0.000000
   10        5.225954   0.000000
   11        8.111004   0.000000
   12        8.111005   0.000000
   13        9.674927   0.000000
   14        9.674928   0.000000
   15        9.693437   0.000000
   16        9.693438   0.000000
   17       12.603979   0.000000
   18       12.603979   0.000000
   19       12.625689   0.000000
   20       12.625690   0.000000
   21       12.821272   0.000000
   22       12.821272   0.000000
   23       17.483223   0.000000
   24       17.483223   0.000000
   25       19.029593   0.000000
   26       19.029593   0.000000
   27       19.281938   0.000000
   28       19.281938   0.000000
   29       19.371800   0.000000
   30       19.371800   0.000000
   31       20.752676   0.000000
   32       20.752676   0.000000
   33       20.766959   0.000000
   34       20.766959   0.000000
   35       24.417837   0.000000
   36       24.417838   0.000000
   37       27.333621   0.000000
   38       27.333621   0.000000
   39       27.454103   0.000000
   40       27.454103   0.000000
   41       28.291056   0.000000
   42       28.291056   0.000000
   43       29.605546   0.000000
   44       29.605547   0.000000
   45       29.646246   0.000000
   46       29.646246   0.000000
   47       31.887763   0.000000
   48       31.887763   0.000000
   49       31.891566   0.000000
   50       31.891566   0.000000
   51       31.941848   0.000000
   52       31.941848   0.000000
   53       32.638188   0.000000
   54       32.638188   0.000000
   55       35.337572   0.000000
   56       35.337573   0.000000
   57       37.735289   0.000000
   58       37.735289   0.000000
   59       37.748132   0.000000
   60       37.748132   0.000000
   61       37.873991   0.000000
   62       37.873992   0.000000
   63       38.749645   0.000000
   64       38.749645   0.000000
   65       38.751939   0.000000
   66       38.751940   0.000000
   67       40.252677   0.000000
   68       40.252677   0.000000
   69       41.906410   0.000000
   70       41.906410   0.000000
   71       42.493240   0.000000
   72       42.493240   0.000000
   73       42.632380   0.000000
   74       42.632381   0.000000
   75       42.675891   0.000000
   76       42.675891   0.000000
   77       44.751216   0.000000
   78       44.751216   0.000000
   79       44.764197   0.000000
   80       44.764198   0.000000
   81       46.026184   0.000000
   82       46.026185   0.000000
   83       46.061542   0.000000
   84       46.061542   0.000000
   85       46.892721   0.000000
   86       46.892721   0.000000
   87       49.277053   0.000000
   88       49.277054   0.000000
   89       49.283567   0.000000
   90       49.283568   0.000000
   91       49.927633   0.000000
   92       49.927634   0.000000
   93       53.835795   0.000000
   94       53.835795   0.000000
   95       53.843073   0.000000
   96       53.843073   0.000000
   97       54.892203   0.000000
   98       54.892204   0.000000
   99       55.915447   0.000000
  100       55.915448   0.000000
  101       55.984764   0.000000
  102       55.984765   0.000000
  103       56.344048   0.000000
  104       56.344048   0.000000
  105       56.384658   0.000000
  106       56.384658   0.000000
  107       57.610224   0.000000
  108       57.610225   0.000000
  109       57.655184   0.000000
  110       57.655184   0.000000
  111       58.309833   0.000000
  112       58.309834   0.000000
  113       58.321494   0.000000
  114       58.321495   0.000000
  115       58.431469   0.000000
  116       58.431469   0.000000
  117       59.635861   0.000000
  118       59.635862   0.000000
  119       60.772866   0.000000
  120       60.772867   0.000000
  121       60.777153   0.000000
  122       60.777153   0.000000
  123       61.435837   0.000000
  124       61.435838   0.000000
  125       63.849172   0.000000
  126       63.849172   0.000000
  127       63.850467   0.000000
  128       63.850467   0.000000
 
  0.5000000E+00  0.3271565E-16  0.0000000E+00  0.4629630E-02
    1      -19.595242   1.000000
    2      -19.595242   1.000000
    3       -6.054060   1.000000
    4       -6.054060   1.000000
    5       -5.027667   1.000000
    6       -5.027666   1.000000
    7       -4.661619   1.000000
    8       -4.661619   1.000000
    9        5.718932   0.000000
   10        5.718932   0.000000
   11        8.113737   0.000000
   12        8.113737   0.000000
   13        9.381993   0.000000
   14        9.381993   0.000000
   15        9.399700   0.000000
   16        9.399700   0.000000
   17       12.898487   0.000000
   18       12.898488   0.000000
   19       14.121862   0.000000
   20       14.121862   0.000000
   21       14.137980   0.000000
   22       14.137980   0.000000
   23       15.452572   0.000000
   24       15.452572   0.000000
   25       16.874767   0.000000
   26       16.874767   0.000000
   27       16.964392   0.000000
   28       16.964393   0.000000
   29       23.061267   0.000000
   30       23.061267   0.000000
   31       23.926209   0.000000
   32       23.926209   0.000000
   33       24.055561   0.000000
   34       24.055561   0.000000
   35       24.082316   0.000000
   36       24.082316   0.000000
   37       25.125480   0.000000
   38       25.125481   0.000000
   39       25.260656   0.000000
   40       25.260656   0.000000
   41       29.467033   0.000000
   42       29.467034   0.000000
   43       29.734054   0.000000
   44       29.734054   0.000000
   45       29.789897   0.000000
   46       29.789897   0.000000
   47       29.906784   0.000000
   48       29.906784   0.000000
   49       30.607520   0.000000
   50       30.607520   0.000000
   51       30.648471   0.000000
   52       30.648471   0.000000
   53       32.496159   0.000000
   54       32.496159   0.000000
   55       33.081660   0.000000
   56       33.081661   0.000000
   57       36.295290   0.000000
   58       36.295291   0.000000
   59       36.845375   0.000000
   60       36.845375   0.000000
   61       36.855914   0.000000
   62       36.855914   0.000000
   63       37.645367   0.000000
   64       37.645368   0.000000
   65       37.645599   0.000000
   66       37.645599   0.000000
   67       39.062631   0.000000
   68       39.062632   0.000000
   69       41.914997   0.000000
   70       41.914997   0.000000
   71       44.555848   0.000000
   72       44.555849   0.000000
   73       44.573960   0.000000
   74       44.573960   0.000000
   75       45.476032   0.000000
   76       45.476033   0.000000
   77       45.596339   0.000000
   78       45.596339   0.000000
   79       45.643042   0.000000
   80       45.643043   0.000000
   81       48.047860   0.000000
   82       48.047860   0.000000
   83       48.683793   0.000000
   84       48.683794   0.000000
   85       48.723077   0.000000
   86       48.723077   0.000000
   87       49.490314   0.000000
   88       49.490314   0.000000
   89       49.571192   0.000000
   90       49.571193   0.000000
   91       51.512137   0.000000
   92       51.512138   0.000000
   93       52.102181   0.000000
   94       52.102182   0.000000
   95       52.676452   0.000000
   96       52.676453   0.000000
   97       52.716732   0.000000
   98       52.716732   0.000000
   99       53.676239   0.000000
  100       53.676240   0.000000
  101       53.695332   0.000000
  102       53.695333   0.000000
  103       55.997081   0.000000
  104       55.997081   0.000000
  105       59.315918   0.000000
  106       59.315918   0.000000
  107       59.976983   0.000000
  108       59.976984   0.000000
  109       59.987050   0.000000
  110       59.987050   0.000000
  111       60.265575   0.000000
  112       60.265576   0.000000
  113       60.304345   0.000000
  114       60.304345   0.000000
  115       62.177180   0.000000
  116       62.177181   0.000000
  117       62.200449   0.000000
  118       62.200450   0.000000
  119       62.327664   0.000000
  120       62.327664   0.000000
  121       62.334219   0.000000
  122       62.334219   0.000000
  123       63.285115   0.000000
  124       63.285116   0.000000
  125       63.382126   0.000000
  126       63.382126   0.000000
  127       64.398207   0.000000
  128       64.398208   0.000000
 
 -0.3333333E+00 -0.3306717E-17  0.0000000E+00  0.4629630E-02
    1      -19.631274   1.000000
    2      -19.631273   1.000000
    3       -5.816220   1.000000
    4       -5.816220   1.000000
    5       -4.963515   1.000000
    6       -4.963515   1.000000
    7       -4.626029   1.000000
    8       -4.626029   1.000000
    9        5.225953   0.000000
   10        5.225954   0.000000
   11        8.111004   0.000000
   12        8.111005   0.000000
   13        9.674927   0.000000
   14        9.674928   0.000000
   15        9.693437   0.000000
   16        9.693438   0.000000
   17       12.603979   0.000000
   18       12.603979   0.000000
   19       12.625689   0.000000
   20       12.625690   0.000000
   21       12.821272   0.000000
   22       12.821272   0.000000
   23       17.483223   0.000000
   24       17.483223   0.000000
   25       19.029593   0.000000
   26       19.029593   0.000000
   27       19.281938   0.000000
   28       19.281938   0.000000
   29       19.371800   0.000000
   30       19.371800   0.000000
   31       20.752676   0.000000
   32       20.752676   0.000000
   33       20.766959   0.000000
   34       20.766959   0.000000
   35       24.417837   0.000000
   36       24.417838   0.000000
   37       27.333621   0.000000
   38       27.333621   0.000000
   39       27.454103   0.000000
   40       27.454103   0.000000
   41       28.291056   0.000000
   42       28.291056   0.000000
   43       29.605546   0.000000
   44       29.605547   0.000000
   45       29.646246   0.000000
   46       29.646246   0.000000
   47       31.887763   0.000000
   48       31.887763   0.000000
   49       31.891566   0.000000
   50       31.891566   0.000000
   51       31.941848   0.000000
   52       31.941848   0.000000
   53       32.638188   0.000000
   54       32.638188   0.000000
   55       35.337572   0.000000
   56       35.337573   0.000000
   57       37.735289   0.000000
   58       37.735289   0.000000
   59       37.748132   0.000000
   60       37.748132   0.000000
   61       37.873991   0.000000
   62       37.873992   0.000000
   63       38.749645   0.000000
   64       38.749645   0.000000
   65       38.751939   0.000000
   66       38.751940   0.000000
   67       40.252677   0.000000
   68       40.252677   0.000000
   69       41.906410   0.000000
   70       41.906410   0.000000
   71       42.493240   0.000000
   72       42.493240   0.000000
   73       42.632381   0.000000
   74       42.632381   0.000000
   75       42.675891   0.000000
   76       42.675891   0.000000
   77       44.751216   0.000000
   78       44.751216   0.000000
   79       44.764197   0.000000
   80       44.764198   0.000000
   81       46.026184   0.000000
   82       46.026185   0.000000
   83       46.061542   0.000000
   84       46.061542   0.000000
   85       46.892721   0.000000
   86       46.892721   0.000000
   87       49.277053   0.000000
   88       49.277054   0.000000
   89       49.283567   0.000000
   90       49.283568   0.000000
   91       49.927633   0.000000
   92       49.927634   0.000000
   93       53.835795   0.000000
   94       53.835795   0.000000
   95       53.843073   0.000000
   96       53.843073   0.000000
   97       54.892203   0.000000
   98       54.892204   0.000000
   99       55.915447   0.000000
  100       55.915448   0.000000
  101       55.984764   0.000000
  102       55.984765   0.000000
  103       56.344048   0.000000
  104       56.344048   0.000000
  105       56.384658   0.000000
  106       56.384658   0.000000
  107       57.610224   0.000000
  108       57.610225   0.000000
  109       57.655184   0.000000
  110       57.655184   0.000000
  111       58.309833   0.000000
  112       58.309834   0.000000
  113       58.321494   0.000000
  114       58.321495   0.000000
  115       58.431469   0.000000
  116       58.431469   0.000000
  117       59.635861   0.000000
  118       59.635862   0.000000
  119       60.772866   0.000000
  120       60.772867   0.000000
  121       60.777153   0.000000
  122       60.777153   0.000000
  123       61.435837   0.000000
  124       61.435838   0.000000
  125       63.849171   0.000000
  126       63.849172   0.000000
  127       63.850467   0.000000
  128       63.850467   0.000000
 
 -0.1666667E+00  0.1222443E-16  0.6938894E-17  0.4629630E-02
    1      -19.701901   1.000000
    2      -19.701901   1.000000
    3       -5.371253   1.000000
    4       -5.371253   1.000000
    5       -4.736659   1.000000
    6       -4.736659   1.000000
    7       -4.552844   1.000000
    8       -4.552844   1.000000
    9        3.948477   0.000000
   10        3.948477   0.000000
   11        8.897167   0.000000
   12        8.897168   0.000000
   13       10.017270   0.000000
   14       10.017270   0.000000
   15       10.033737   0.000000
   16       10.033737   0.000000
   17       11.711287   0.000000
   18       11.711287   0.000000
   19       11.722507   0.000000
   20       11.722508   0.000000
   21       13.827556   0.000000
   22       13.827557   0.000000
   23       15.306103   0.000000
   24       15.306104   0.000000
   25       17.442415   0.000000
   26       17.442415   0.000000
   27       17.465819   0.000000
   28       17.465819   0.000000
   29       19.678994   0.000000
   30       19.678994   0.000000
   31       22.207535   0.000000
   32       22.207535   0.000000
   33       23.215356   0.000000
   34       23.215356   0.000000
   35       23.328467   0.000000
   36       23.328467   0.000000
   37       27.476370   0.000000
   38       27.476371   0.000000
   39       27.594698   0.000000
   40       27.594698   0.000000
   41       29.132696   0.000000
   42       29.132696   0.000000
   43       29.414888   0.000000
   44       29.414888   0.000000
   45       29.417388   0.000000
   46       29.417388   0.000000
   47       31.978321   0.000000
   48       31.978321   0.000000
   49       34.050159   0.000000
   50       34.050160   0.000000
   51       34.712462   0.000000
   52       34.712462   0.000000
   53       34.736303   0.000000
   54       34.736303   0.000000
   55       36.771280   0.000000
   56       36.771281   0.000000
   57       37.249869   0.000000
   58       37.249869   0.000000
   59       37.286733   0.000000
   60       37.286733   0.000000
   61       39.875214   0.000000
   62       39.875214   0.000000
   63       40.314795   0.000000
   64       40.314795   0.000000
   65       40.328010   0.000000
   66       40.328010   0.000000
   67       42.198079   0.000000
   68       42.198079   0.000000
   69       42.207982   0.000000
   70       42.207982   0.000000
   71       42.333028   0.000000
   72       42.333028   0.000000
   73       43.140072   0.000000
   74       43.140072   0.000000
   75       44.151396   0.000000
   76       44.151397   0.000000
   77       44.174350   0.000000
   78       44.174351   0.000000
   79       44.551115   0.000000
   80       44.551116   0.000000
   81       45.575957   0.000000
   82       45.575957   0.000000
   83       45.605062   0.000000
   84       45.605062   0.000000
   85       46.648927   0.000000
   86       46.648927   0.000000
   87       48.707768   0.000000
   88       48.707768   0.000000
   89       48.710352   0.000000
   90       48.710353   0.000000
   91       48.847711   0.000000
   92       48.847711   0.000000
   93       49.374117   0.000000
   94       49.374118   0.000000
   95       49.383406   0.000000
   96       49.383406   0.000000
   97       51.316781   0.000000
   98       51.316781   0.000000
   99       51.653093   0.000000
  100       51.653094   0.000000
  101       51.841366   0.000000
  102       51.841366   0.000000
  103       51.843050   0.000000
  104       51.843050   0.000000
  105       52.042282   0.000000
  106       52.042283   0.000000
  107       55.444655   0.000000
  108       55.444655   0.000000
  109       55.444995   0.000000
  110       55.444995   0.000000
  111       55.865810   0.000000
  112       55.865810   0.000000
  113       56.441006   0.000000
  114       56.441007   0.000000
  115       56.444131   0.000000
  116       56.444132   0.000000
  117       61.237657   0.000000
  118       61.237657   0.000000
  119       61.292417   0.000000
  120       61.292417   0.000000
  121       61.507538   0.000000
  122       61.507539   0.000000
  123       62.980788   0.000000
  124       62.980788   0.000000
  125       65.444788   0.000000
  126       65.444788   0.000000
  127       65.460820   0.000000
  128       65.460820   0.000000
 
  0.5777790E-33  0.1666667E+00  0.1387779E-16  0.4629630E-02
    1      -19.701901   1.000000
    2      -19.701901   1.000000
    3       -5.371253   1.000000
    4       -5.371253   1.000000
    5       -4.736659   1.000000
    6       -4.736659   1.000000
    7       -4.552844   1.000000
    8       -4.552844   1.000000
    9        3.948477   0.000000
   10        3.948477   0.000000
   11        8.897167   0.000000
   12        8.897167   0.000000
   13       10.017270   0.000000
   14       10.017270   0.000000
   15       10.033737   0.000000
   16       10.033738   0.000000
   17       11.711287   0.000000
   18       11.711287   0.000000
   19       11.722507   0.000000
   20       11.722507   0.000000
   21       13.827559   0.000000
   22       13.827559   0.000000
   23       15.306103   0.000000
   24       15.306103   0.000000
   25       17.442413   0.000000
   26       17.442413   0.000000
   27       17.465817   0.000000
   28       17.465818   0.000000
   29       19.678996   0.000000
   30       19.678996   0.000000
   31       22.207536   0.000000
   32       22.207536   0.000000
   33       23.215355   0.000000
   34       23.215355   0.000000
   35       23.328466   0.000000
   36       23.328466   0.000000
   37       27.476370   0.000000
   38       27.476370   0.000000
   39       27.594697   0.000000
   40       27.594697   0.000000
   41       29.132699   0.000000
   42       29.132699   0.000000
   43       29.414888   0.000000
   44       29.414888   0.000000
   45       29.417388   0.000000
   46       29.417388   0.000000
   47       31.978324   0.000000
   48       31.978324   0.000000
   49       34.050160   0.000000
   50       34.050161   0.000000
   51       34.712459   0.000000
   52       34.712459   0.000000
   53       34.736300   0.000000
   54       34.736301   0.000000
   55       36.771283   0.000000
   56       36.771284   0.000000
   57       37.249868   0.000000
   58       37.249869   0.000000
   59       37.286733   0.000000
   60       37.286733   0.000000
   61       39.875214   0.000000
   62       39.875215   0.000000
   63       40.314793   0.000000
   64       40.314793   0.000000
   65       40.328008   0.000000
   66       40.328008   0.000000
   67       42.198081   0.000000
   68       42.198081   0.000000
   69       42.207984   0.000000
   70       42.207985   0.000000
   71       42.333026   0.000000
   72       42.333027   0.000000
   73       43.140067   0.000000
   74       43.140067   0.000000
   75       44.151398   0.000000
   76       44.151398   0.000000
   77       44.174352   0.000000
   78       44.174352   0.000000
   79       44.551119   0.000000
   80       44.551119   0.000000
   81       45.575957   0.000000
   82       45.575957   0.000000
   83       45.605062   0.000000
   84       45.605062   0.000000
   85       46.648923   0.000000
   86       46.648924   0.000000
   87       48.707771   0.000000
   88       48.707771   0.000000
   89       48.710355   0.000000
   90       48.710356   0.000000
   91       48.847711   0.000000
   92       48.847711   0.000000
   93       49.374118   0.000000
   94       49.374119   0.000000
   95       49.383407   0.000000
   96       49.383407   0.000000
   97       51.316782   0.000000
   98       51.316783   0.000000
   99       51.653091   0.000000
  100       51.653092   0.000000
  101       51.841366   0.000000
  102       51.841366   0.000000
  103       51.843050   0.000000
  104       51.843050   0.000000
  105       52.042277   0.000000
  106       52.042277   0.000000
  107       55.444652   0.000000
  108       55.444652   0.000000
  109       55.444992   0.000000
  110       55.444993   0.000000
  111       55.865806   0.000000
  112       55.865807   0.000000
  113       56.441009   0.000000
  114       56.441009   0.000000
  115       56.444134   0.000000
  116       56.444134   0.000000
  117       61.237657   0.000000
  118       61.237658   0.000000
  119       61.292418   0.000000
  120       61.292418   0.000000
  121       61.507541   0.000000