       N       E                     dE             d eps       ncg     rms          rms(c)
DIA:   1    -0.190085700639E+02   -0.19009E+02    0.00000E+00     0   0.000E+00
DIA:   2    -0.190085700639E+02    0.47748E-11    0.00000E+00     0   0.000E+00
DIA:   3    -0.190085700639E+02    0.90949E-12    0.00000E+00     0   0.000E+00
DIA:   4    -0.190085700639E+02    0.00000E+00    0.00000E+00     0   0.000E+00
DIA:   5    -0.190085700639E+02   -0.52296E-11    0.00000E+00     0   0.000E+00    0.264E-06
DIA:   6    -0.190085700646E+02   -0.72453E-09    0.00000E+00     0   0.000E+00
   1 F= -.19008570E+02 E0= -.19008570E+02  d E =0.000000E+00  mag=    -0.0000     0.0000    -0.0000
 imaginary and real dielectric function
