   1   1   0   0
  0.5764366E+02  0.4335996E-09  0.4335996E-09  0.4335996E-09  0.1000000E-15
  1.000000000000000E-004
  CAR 
 Og_FCC                                  
     13.08974988    -17.51912039  301     -3.20947354      1.00000000
    -17.519  0.0000E+00  0.0000E+00
    -17.417  0.0000E+00  0.0000E+00
    -17.315  0.0000E+00  0.0000E+00
    -17.213  0.0000E+00  0.0000E+00
    -17.111  0.0000E+00  0.0000E+00
    -17.009  0.0000E+00  0.0000E+00
    -16.907  0.0000E+00  0.0000E+00
    -16.805  0.0000E+00  0.0000E+00
    -16.703  0.0000E+00  0.0000E+00
    -16.601  0.0000E+00  0.0000E+00
    -16.499  0.0000E+00  0.0000E+00
    -16.397  0.0000E+00  0.0000E+00
    -16.295  0.0000E+00  0.0000E+00
    -16.193  0.0000E+00  0.0000E+00
    -16.091  0.6344E-11  0.5831E-02
    -15.989  0.1416E+01  0.3020E+00
    -15.887  0.0000E+00  0.8455E+00
    -15.785  0.0000E+00  0.2000E+01
    -15.683  0.0000E+00  0.2000E+01
    -15.581  0.0000E+00  0.2000E+01
    -15.479  0.0000E+00  0.2000E+01
    -15.376  0.0000E+00  0.2000E+01
    -15.274  0.0000E+00  0.2000E+01
    -15.172  0.0000E+00  0.2000E+01
    -15.070  0.0000E+00  0.2000E+01
    -14.968  0.0000E+00  0.2000E+01
    -14.866  0.0000E+00  0.2000E+01
    -14.764  0.0000E+00  0.2000E+01
    -14.662  0.0000E+00  0.2000E+01
    -14.560  0.0000E+00  0.2000E+01
    -14.458  0.0000E+00  0.2000E+01
    -14.356  0.0000E+00  0.2000E+01
    -14.254  0.0000E+00  0.2000E+01
    -14.152  0.0000E+00  0.2000E+01
    -14.050  0.0000E+00  0.2000E+01
    -13.948  0.0000E+00  0.2000E+01
    -13.846  0.0000E+00  0.2000E+01
    -13.744  0.0000E+00  0.2000E+01
    -13.642  0.0000E+00  0.2000E+01
    -13.540  0.0000E+00  0.2000E+01
    -13.438  0.0000E+00  0.2000E+01
    -13.336  0.0000E+00  0.2000E+01
    -13.234  0.0000E+00  0.2000E+01
    -13.132  0.0000E+00  0.2000E+01
    -13.030  0.0000E+00  0.2000E+01
    -12.928  0.0000E+00  0.2000E+01
    -12.826  0.0000E+00  0.2000E+01
    -12.724  0.0000E+00  0.2000E+01
    -12.622  0.0000E+00  0.2000E+01
    -12.520  0.0000E+00  0.2000E+01
    -12.418  0.0000E+00  0.2000E+01
    -12.316  0.0000E+00  0.2000E+01
    -12.214  0.0000E+00  0.2000E+01
    -12.112  0.0000E+00  0.2000E+01
    -12.010  0.0000E+00  0.2000E+01
    -11.907  0.0000E+00  0.2000E+01
    -11.805  0.0000E+00  0.2000E+01
    -11.703  0.0000E+00  0.2000E+01
    -11.601  0.0000E+00  0.2000E+01
    -11.499  0.0000E+00  0.2000E+01
    -11.397  0.0000E+00  0.2000E+01
    -11.295  0.0000E+00  0.2000E+01
    -11.193  0.0000E+00  0.2000E+01
    -11.091  0.0000E+00  0.2000E+01
    -10.989  0.0000E+00  0.2000E+01
    -10.887  0.0000E+00  0.2000E+01
    -10.785  0.0000E+00  0.2000E+01
    -10.683  0.0000E+00  0.2000E+01
    -10.581  0.0000E+00  0.2000E+01
    -10.479  0.0000E+00  0.2000E+01
    -10.377  0.0000E+00  0.2000E+01
    -10.275  0.0000E+00  0.2000E+01
    -10.173  0.0000E+00  0.2000E+01
    -10.071  0.0000E+00  0.2000E+01
     -9.969  0.0000E+00  0.2000E+01
     -9.867  0.0000E+00  0.2000E+01
     -9.765  0.0000E+00  0.2000E+01
     -9.663  0.0000E+00  0.2000E+01
     -9.561  0.0000E+00  0.2000E+01
     -9.459  0.0000E+00  0.2000E+01
     -9.357  0.0000E+00  0.2000E+01
     -9.255  0.0000E+00  0.2000E+01
     -9.153  0.0000E+00  0.2000E+01
     -9.051  0.0000E+00  0.2000E+01
     -8.949  0.0000E+00  0.2000E+01
     -8.847  0.0000E+00  0.2000E+01
     -8.745  0.0000E+00  0.2000E+01
     -8.643  0.0000E+00  0.2000E+01
     -8.541  0.0000E+00  0.2000E+01
     -8.438  0.0000E+00  0.2000E+01
     -8.336  0.0000E+00  0.2000E+01
     -8.234  0.0000E+00  0.2000E+01
     -8.132  0.0000E+00  0.2000E+01
     -8.030  0.0000E+00  0.2000E+01
     -7.928  0.0000E+00  0.2000E+01
     -7.826  0.0000E+00  0.2000E+01
     -7.724  0.0000E+00  0.2000E+01
     -7.622  0.0000E+00  0.2000E+01
     -7.520  0.0000E+00  0.2000E+01
     -7.418  0.0000E+00  0.2000E+01
     -7.316  0.0000E+00  0.2000E+01
     -7.214  0.0000E+00  0.2000E+01
     -7.112  0.0000E+00  0.2000E+01
     -7.010  0.0000E+00  0.2000E+01
     -6.908  0.0000E+00  0.2000E+01
     -6.806  0.0000E+00  0.2000E+01
     -6.704  0.0000E+00  0.2000E+01
     -6.602  0.0000E+00  0.2000E+01
     -6.500  0.0000E+00  0.2000E+01
     -6.398  0.0000E+00  0.2000E+01
     -6.296  0.0000E+00  0.2000E+01
     -6.194  0.0000E+00  0.2000E+01
     -6.092  0.0000E+00  0.2000E+01
     -5.990  0.0000E+00  0.2000E+01
     -5.888  0.0000E+00  0.2000E+01
     -5.786  0.0000E+00  0.2000E+01
     -5.684  0.0000E+00  0.2000E+01
     -5.582  0.0000E+00  0.2000E+01
     -5.480  0.0000E+00  0.2571E+01
     -5.378  0.0000E+00  0.3341E+01
     -5.276  0.0000E+00  0.3621E+01
     -5.174  0.4572E+00  0.3703E+01
     -5.072  0.0000E+00  0.3843E+01
     -4.969  0.6858E+00  0.3913E+01
     -4.867  0.0000E+00  0.3913E+01
     -4.765  0.0000E+00  0.3948E+01
     -4.663  0.0000E+00  0.3994E+01
     -4.561  0.0000E+00  0.4000E+01
     -4.459  0.1275E+01  0.4270E+01
     -4.357  0.3426E+00  0.4875E+01
     -4.255  0.5098E-03  0.5015E+01
     -4.153  0.0000E+00  0.5434E+01
     -4.051  0.0000E+00  0.5656E+01
     -3.949  0.1142E-15  0.5936E+01
     -3.847  0.0000E+00  0.6367E+01
     -3.745  0.0000E+00  0.6927E+01
     -3.643  0.0000E+00  0.7102E+01
     -3.541  0.1316E+01  0.7551E+01
     -3.439  0.0000E+00  0.7790E+01
     -3.337  0.0000E+00  0.7942E+01
     -3.235  0.0000E+00  0.8000E+01
     -3.133  0.0000E+00  0.8000E+01
     -3.031  0.0000E+00  0.8000E+01
     -2.929  0.0000E+00  0.8000E+01
     -2.827  0.0000E+00  0.8000E+01
     -2.725  0.0000E+00  0.8000E+01
     -2.623  0.0000E+00  0.8000E+01
     -2.521  0.0000E+00  0.8000E+01
     -2.419  0.0000E+00  0.8000E+01
     -2.317  0.0000E+00  0.8000E+01
     -2.215  0.0000E+00  0.8000E+01
     -2.113  0.0000E+00  0.8000E+01
     -2.011  0.0000E+00  0.8000E+01
     -1.909  0.0000E+00  0.8000E+01
     -1.807  0.0000E+00  0.8000E+01
     -1.705  0.0000E+00  0.8000E+01
     -1.603  0.0000E+00  0.8000E+01
     -1.500  0.0000E+00  0.8000E+01
     -1.398  0.0000E+00  0.8000E+01
     -1.296  0.0000E+00  0.8000E+01
     -1.194  0.0000E+00  0.8000E+01
     -1.092  0.0000E+00  0.8000E+01
     -0.990  0.0000E+00  0.8000E+01
     -0.888  0.0000E+00  0.8000E+01
     -0.786  0.0000E+00  0.8000E+01
     -0.684  0.0000E+00  0.8000E+01
     -0.582  0.0000E+00  0.8000E+01
     -0.480  0.0000E+00  0.8000E+01
     -0.378  0.0000E+00  0.8000E+01
     -0.276  0.0000E+00  0.8000E+01
     -0.174  0.0000E+00  0.8000E+01
     -0.072  0.0000E+00  0.8000E+01
      0.030  0.0000E+00  0.8000E+01
      0.132  0.0000E+00  0.8000E+01
      0.234  0.0000E+00  0.8000E+01
      0.336  0.0000E+00  0.8000E+01
      0.438  0.0000E+00  0.8000E+01
      0.540  0.0000E+00  0.8000E+01
      0.642  0.0000E+00  0.8000E+01
      0.744  0.0000E+00  0.8000E+01
      0.846  0.0000E+00  0.8000E+01
      0.948  0.0000E+00  0.8000E+01
      1.050  0.0000E+00  0.8000E+01
      1.152  0.0000E+00  0.8000E+01
      1.254  0.0000E+00  0.8000E+01
      1.356  0.0000E+00  0.8000E+01
      1.458  0.0000E+00  0.8000E+01
      1.560  0.0000E+00  0.8000E+01
      1.662  0.0000E+00  0.8000E+01
      1.764  0.0000E+00  0.8000E+01
      1.866  0.0000E+00  0.8000E+01
      1.969  0.0000E+00  0.8000E+01
      2.071  0.0000E+00  0.8000E+01
      2.173  0.0000E+00  0.8000E+01
      2.275  0.0000E+00  0.8000E+01
      2.377  0.0000E+00  0.8000E+01
      2.479  0.0000E+00  0.8000E+01
      2.581  0.0000E+00  0.8006E+01
      2.683  0.0000E+00  0.8006E+01
      2.785  0.0000E+00  0.8006E+01
      2.887  0.0000E+00  0.8006E+01
      2.989  0.0000E+00  0.8006E+01
      3.091  0.0000E+00  0.8006E+01
      3.193  0.0000E+00  0.8052E+01
      3.295  0.2294E-01  0.8055E+01
      3.397  0.0000E+00  0.8087E+01
      3.499  0.0000E+00  0.8087E+01
      3.601  0.0000E+00  0.8087E+01
      3.703  0.0000E+00  0.8087E+01
      3.805  0.0000E+00  0.8122E+01
      3.907  0.2769E-03  0.8192E+01
      4.009  0.4177E+00  0.8352E+01
      4.111  0.0000E+00  0.8496E+01
      4.213  0.1035E-03  0.8496E+01
      4.315  0.0000E+00  0.8671E+01
      4.417  0.0000E+00  0.8810E+01
      4.519  0.4275E-05  0.9090E+01
      4.621  0.0000E+00  0.9405E+01
      4.723  0.0000E+00  0.9405E+01
      4.825  0.0000E+00  0.9755E+01
      4.927  0.0000E+00  0.9755E+01
      5.029  0.0000E+00  0.9755E+01
      5.131  0.0000E+00  0.1028E+02
      5.233  0.0000E+00  0.1042E+02
      5.336  0.0000E+00  0.1042E+02
      5.438  0.0000E+00  0.1070E+02
      5.540  0.0000E+00  0.1070E+02
      5.642  0.0000E+00  0.1098E+02
      5.744  0.0000E+00  0.1098E+02
      5.846  0.0000E+00  0.1133E+02
      5.948  0.0000E+00  0.1147E+02
      6.050  0.0000E+00  0.1161E+02
      6.152  0.6446E-02  0.1182E+02
      6.254  0.3901E+00  0.1189E+02
      6.356  0.0000E+00  0.1199E+02
      6.458  0.0000E+00  0.1225E+02
      6.560  0.0000E+00  0.1258E+02
      6.662  0.0000E+00  0.1258E+02
      6.764  0.0000E+00  0.1304E+02
      6.866  0.0000E+00  0.1309E+02
      6.968  0.0000E+00  0.1313E+02
      7.070  0.4572E+00  0.1354E+02
      7.172  0.1369E+01  0.1387E+02
      7.274  0.4156E+00  0.1414E+02
      7.376  0.1372E+01  0.1443E+02
      7.478  0.0000E+00  0.1446E+02
      7.580  0.0000E+00  0.1457E+02
      7.682  0.0000E+00  0.1471E+02
      7.784  0.6858E+00  0.1478E+02
      7.886  0.0000E+00  0.1495E+02
      7.988  0.0000E+00  0.1530E+02
      8.090  0.0000E+00  0.1530E+02
      8.192  0.0000E+00  0.1530E+02
      8.294  0.0000E+00  0.1565E+02
      8.396  0.0000E+00  0.1565E+02
      8.498  0.0000E+00  0.1583E+02
      8.600  0.0000E+00  0.1586E+02
      8.702  0.3565E-02  0.1614E+02
      8.805  0.2538E-15  0.1631E+02
      8.907  0.0000E+00  0.1655E+02
      9.009  0.0000E+00  0.1655E+02
      9.111  0.0000E+00  0.1655E+02
      9.213  0.3268E+00  0.1670E+02
      9.315  0.0000E+00  0.1672E+02
      9.417  0.0000E+00  0.1672E+02
      9.519  0.3401E+00  0.1676E+02
      9.621  0.0000E+00  0.1683E+02
      9.723  0.0000E+00  0.1690E+02
      9.825  0.1368E+01  0.1736E+02
      9.927  0.0000E+00  0.1750E+02
     10.029  0.0000E+00  0.1778E+02
     10.131  0.0000E+00  0.1778E+02
     10.233  0.0000E+00  0.1782E+02
     10.335  0.0000E+00  0.1785E+02
     10.437  0.9493E-01  0.1786E+02
     10.539  0.0000E+00  0.1831E+02
     10.641  0.2389E-04  0.1859E+02
     10.743  0.0000E+00  0.1878E+02
     10.845  0.0000E+00  0.1892E+02
     10.947  0.2231E+00  0.1894E+02
     11.049  0.0000E+00  0.1920E+02
     11.151  0.0000E+00  0.1923E+02
     11.253  0.1353E+01  0.1965E+02
     11.355  0.0000E+00  0.1986E+02
     11.457  0.0000E+00  0.1986E+02
     11.559  0.0000E+00  0.1986E+02
     11.661  0.0000E+00  0.1986E+02
     11.763  0.0000E+00  0.2000E+02
     11.865  0.0000E+00  0.2000E+02
     11.967  0.0000E+00  0.2000E+02
     12.069  0.0000E+00  0.2000E+02
     12.171  0.0000E+00  0.2000E+02
     12.274  0.0000E+00  0.2000E+02
     12.376  0.0000E+00  0.2000E+02
     12.478  0.0000E+00  0.2000E+02
     12.580  0.0000E+00  0.2000E+02
     12.682  0.0000E+00  0.2000E+02
     12.784  0.0000E+00  0.2000E+02
     12.886  0.0000E+00  0.2000E+02
     12.988  0.0000E+00  0.2000E+02
     13.090  0.0000E+00  0.2000E+02
