<?xml version="1.0" encoding="ISO-8859-1"?>
<modeling>
 <generator>
  <i name="program" type="string">vasp </i>
  <i name="version" type="string">5.4.4.18Apr17-6-g9f103f2a35  </i>
  <i name="subversion" type="string">(build Nov 03 2018 10:20:46) complex            parallel </i>
  <i name="platform" type="string">LinuxIFC </i>
  <i name="date" type="string">2018 12 06 </i>
  <i name="time" type="string">15:44:53 </i>
 </generator>
 <incar>
  <i type="string" name="SYSTEM">   Og_FCC</i>
  <i type="string" name="PREC">accurate</i>
  <i type="string" name="ALGO">   Normal</i>
  <i type="logical" name="ADDGRID"> T  </i>
  <i type="logical" name="LSORBIT"> T  </i>
  <i type="int" name="ISPIN">     1</i>
  <i type="int" name="MAXMIX">    50</i>
  <i type="int" name="NELM">    50</i>
  <i type="int" name="NELMDL">    -5</i>
  <i type="int" name="NELMIN">     2</i>
  <i type="int" name="IBRION">    -1</i>
  <i type="int" name="NFREE">     5</i>
  <i name="EDIFF">      0.00000001</i>
  <i name="EDIFFG">      0.00001000</i>
  <i type="int" name="NSW">     1</i>
  <i type="int" name="ISIF">     3</i>
  <i type="int" name="ISYM">     0</i>
  <i name="SYMPREC">      0.00000010</i>
  <i name="ENCUT">    300.00000000</i>
  <i name="POTIM">      0.10000000</i>
  <i type="logical" name="LREAL"> F  </i>
  <i type="int" name="ISMEAR">     0</i>
  <i name="SIGMA">      0.00100000</i>
  <i type="int" name="NWRITE">     2</i>
  <i type="logical" name="LWAVE"> T  </i>
  <i type="logical" name="LCHARG"> F  </i>
  <i type="logical" name="LVTOT"> F  </i>
  <i type="logical" name="LOPTICS"> T  </i>
  <i type="logical" name="GGA_COMPAT"> F  </i>
  <v type="int" name="KPOINT_BSE">    -1     0     0     0</v>
  <i type="int" name="NELM">    50</i>
  <i type="string" name="GGA"> PE</i>
 </incar>
 <structure name="primitive_cell" >
  <crystal>
   <varray name="basis" >
    <v>       4.33599578       0.00000000       0.00000000 </v>
    <v>       2.16799789       3.75508250      -0.00000000 </v>
    <v>       2.16799789       1.25169417       3.54032573 </v>
   </varray>
   <i name="volume">     57.64366099 </i>
   <varray name="rec_basis" >
    <v>       0.23062753      -0.13315287      -0.09415330 </v>
    <v>       0.00000000       0.26630573      -0.09415330 </v>
    <v>      -0.00000000       0.00000000       0.28245989 </v>
   </varray>
  </crystal>
  <varray name="positions" >
   <v>       0.00000000       0.00000000       0.00000000 </v>
  </varray>
 </structure>
 <varray name="primitive_index" >
  <v type="int" >        1 </v>
 </varray>
 <kpoints>
  <generation param="Gamma">
   <v type="int" name="divisions">       7        7        7 </v>
   <v name="usershift">      0.00000000       0.00000000       0.00000000 </v>
   <v name="genvec1">      0.14285714       0.00000000       0.00000000 </v>
   <v name="genvec2">      0.00000000       0.14285714       0.00000000 </v>
   <v name="genvec3">      0.00000000      -0.00000000       0.14285714 </v>
   <v name="shift">      0.00000000       0.00000000       0.00000000 </v>
  </generation>
  <varray name="kpointlist" >
   <v>       0.00000000       0.00000000       0.00000000 </v>
   <v>       0.14285714      -0.00000000      -0.00000000 </v>
   <v>       0.28571429      -0.00000000      -0.00000000 </v>
   <v>       0.42857143       0.00000000      -0.00000000 </v>
   <v>      -0.42857143      -0.00000000       0.00000000 </v>
   <v>      -0.28571429       0.00000000       0.00000000 </v>
   <v>      -0.14285714      -0.00000000       0.00000000 </v>
   <v>       0.00000000       0.14285714       0.00000000 </v>
   <v>       0.14285714       0.14285714      -0.00000000 </v>
   <v>       0.28571429       0.14285714      -0.00000000 </v>
   <v>       0.42857143       0.14285714      -0.00000000 </v>
   <v>      -0.42857143       0.14285714       0.00000000 </v>
   <v>      -0.28571429       0.14285714       0.00000000 </v>
   <v>      -0.14285714       0.14285714      -0.00000000 </v>
   <v>       0.00000000       0.28571429       0.00000000 </v>
   <v>       0.14285714       0.28571429      -0.00000000 </v>
   <v>       0.28571429       0.28571429      -0.00000000 </v>
   <v>       0.42857143       0.28571429      -0.00000000 </v>
   <v>      -0.42857143       0.28571429       0.00000000 </v>
   <v>      -0.28571429       0.28571429       0.00000000 </v>
   <v>      -0.14285714       0.28571429      -0.00000000 </v>
   <v>      -0.00000000       0.42857143       0.00000000 </v>
   <v>       0.14285714       0.42857143      -0.00000000 </v>
   <v>       0.28571429       0.42857143      -0.00000000 </v>
   <v>       0.42857143       0.42857143       0.00000000 </v>
   <v>      -0.42857143       0.42857143       0.00000000 </v>
   <v>      -0.28571429       0.42857143       0.00000000 </v>
   <v>      -0.14285714       0.42857143      -0.00000000 </v>
   <v>       0.00000000      -0.42857143       0.00000000 </v>
   <v>       0.14285714      -0.42857143       0.00000000 </v>
   <v>       0.28571429      -0.42857143      -0.00000000 </v>
   <v>       0.42857143      -0.42857143      -0.00000000 </v>
   <v>      -0.42857143      -0.42857143       0.00000000 </v>
   <v>      -0.28571429      -0.42857143       0.00000000 </v>
   <v>      -0.14285714      -0.42857143       0.00000000 </v>
   <v>      -0.00000000      -0.28571429       0.00000000 </v>
   <v>       0.14285714      -0.28571429      -0.00000000 </v>
   <v>       0.28571429      -0.28571429      -0.00000000 </v>
   <v>       0.42857143      -0.28571429      -0.00000000 </v>
   <v>      -0.42857143      -0.28571429       0.00000000 </v>
   <v>      -0.28571429      -0.28571429       0.00000000 </v>
   <v>      -0.14285714      -0.28571429       0.00000000 </v>
   <v>       0.00000000      -0.14285714      -0.00000000 </v>
   <v>       0.14285714      -0.14285714      -0.00000000 </v>
   <v>       0.28571429      -0.14285714      -0.00000000 </v>
   <v>       0.42857143      -0.14285714      -0.00000000 </v>
   <v>      -0.42857143      -0.14285714       0.00000000 </v>
   <v>      -0.28571429      -0.14285714       0.00000000 </v>
   <v>      -0.14285714      -0.14285714      -0.00000000 </v>
   <v>       0.00000000       0.00000000       0.14285714 </v>
   <v>       0.14285714      -0.00000000       0.14285714 </v>
   <v>       0.28571429      -0.00000000       0.14285714 </v>
   <v>       0.42857143       0.00000000       0.14285714 </v>
   <v>      -0.42857143      -0.00000000       0.14285714 </v>
   <v>      -0.28571429       0.00000000       0.14285714 </v>
   <v>      -0.14285714      -0.00000000       0.14285714 </v>
   <v>       0.00000000       0.14285714       0.14285714 </v>
   <v>       0.14285714       0.14285714       0.14285714 </v>
   <v>       0.28571429       0.14285714       0.14285714 </v>
   <v>       0.42857143       0.14285714       0.14285714 </v>
   <v>      -0.42857143       0.14285714       0.14285714 </v>
   <v>      -0.28571429       0.14285714       0.14285714 </v>
   <v>      -0.14285714       0.14285714       0.14285714 </v>
   <v>       0.00000000       0.28571429       0.14285714 </v>
   <v>       0.14285714       0.28571429       0.14285714 </v>
   <v>       0.28571429       0.28571429       0.14285714 </v>
   <v>       0.42857143       0.28571429       0.14285714 </v>
   <v>      -0.42857143       0.28571429       0.14285714 </v>
   <v>      -0.28571429       0.28571429       0.14285714 </v>
   <v>      -0.14285714       0.28571429       0.14285714 </v>
   <v>      -0.00000000       0.42857143       0.14285714 </v>
   <v>       0.14285714       0.42857143       0.14285714 </v>
   <v>       0.28571429       0.42857143       0.14285714 </v>
   <v>       0.42857143       0.42857143       0.14285714 </v>
   <v>      -0.42857143       0.42857143       0.14285714 </v>
   <v>      -0.28571429       0.42857143       0.14285714 </v>
   <v>      -0.14285714       0.42857143       0.14285714 </v>
   <v>       0.00000000      -0.42857143       0.14285714 </v>
   <v>       0.14285714      -0.42857143       0.14285714 </v>
   <v>       0.28571429      -0.42857143       0.14285714 </v>
   <v>       0.42857143      -0.42857143       0.14285714 </v>
   <v>      -0.42857143      -0.42857143       0.14285714 </v>
   <v>      -0.28571429      -0.42857143       0.14285714 </v>
   <v>      -0.14285714      -0.42857143       0.14285714 </v>
   <v>       0.00000000      -0.28571429       0.14285714 </v>
   <v>       0.14285714      -0.28571429       0.14285714 </v>
   <v>       0.28571429      -0.28571429       0.14285714 </v>
   <v>       0.42857143      -0.28571429       0.14285714 </v>
   <v>      -0.42857143      -0.28571429       0.14285714 </v>
   <v>      -0.28571429      -0.28571429       0.14285714 </v>
   <v>      -0.14285714      -0.28571429       0.14285714 </v>
   <v>       0.00000000      -0.14285714       0.14285714 </v>
   <v>       0.14285714      -0.14285714       0.14285714 </v>
   <v>       0.28571429      -0.14285714       0.14285714 </v>
   <v>       0.42857143      -0.14285714       0.14285714 </v>
   <v>      -0.42857143      -0.14285714       0.14285714 </v>
   <v>      -0.28571429      -0.14285714       0.14285714 </v>
   <v>      -0.14285714      -0.14285714       0.14285714 </v>
   <v>       0.00000000       0.00000000       0.28571429 </v>
   <v>       0.14285714      -0.00000000       0.28571429 </v>
   <v>       0.28571429      -0.00000000       0.28571429 </v>
   <v>       0.42857143      -0.00000000       0.28571429 </v>
   <v>      -0.42857143      -0.00000000       0.28571429 </v>
   <v>      -0.28571429       0.00000000       0.28571429 </v>
   <v>      -0.14285714       0.00000000       0.28571429 </v>
   <v>      -0.00000000       0.14285714       0.28571429 </v>
   <v>       0.14285714       0.14285714       0.28571429 </v>
   <v>       0.28571429       0.14285714       0.28571429 </v>
   <v>       0.42857143       0.14285714       0.28571429 </v>
   <v>      -0.42857143       0.14285714       0.28571429 </v>
   <v>      -0.28571429       0.14285714       0.28571429 </v>
   <v>      -0.14285714       0.14285714       0.28571429 </v>
   <v>       0.00000000       0.28571429       0.28571429 </v>
   <v>       0.14285714       0.28571429       0.28571429 </v>
   <v>       0.28571429       0.28571429       0.28571429 </v>
   <v>       0.42857143       0.28571429       0.28571429 </v>
   <v>      -0.42857143       0.28571429       0.28571429 </v>
   <v>      -0.28571429       0.28571429       0.28571429 </v>
   <v>      -0.14285714       0.28571429       0.28571429 </v>
   <v>      -0.00000000       0.42857143       0.28571429 </v>
   <v>       0.14285714       0.42857143       0.28571429 </v>
   <v>       0.28571429       0.42857143       0.28571429 </v>
   <v>       0.42857143       0.42857143       0.28571429 </v>
   <v>      -0.42857143       0.42857143       0.28571429 </v>
   <v>      -0.28571429       0.42857143       0.28571429 </v>
   <v>      -0.14285714       0.42857143       0.28571429 </v>
   <v>       0.00000000      -0.42857143       0.28571429 </v>
   <v>       0.14285714      -0.42857143       0.28571429 </v>
   <v>       0.28571429      -0.42857143       0.28571429 </v>
   <v>       0.42857143      -0.42857143       0.28571429 </v>
   <v>      -0.42857143      -0.42857143       0.28571429 </v>
   <v>      -0.28571429      -0.42857143       0.28571429 </v>
   <v>      -0.14285714      -0.42857143       0.28571429 </v>
   <v>       0.00000000      -0.28571429       0.28571429 </v>
   <v>       0.14285714      -0.28571429       0.28571429 </v>
   <v>       0.28571429      -0.28571429       0.28571429 </v>
   <v>       0.42857143      -0.28571429       0.28571429 </v>
   <v>      -0.42857143      -0.28571429       0.28571429 </v>
   <v>      -0.28571429      -0.28571429       0.28571429 </v>
   <v>      -0.14285714      -0.28571429       0.28571429 </v>
   <v>      -0.00000000      -0.14285714       0.28571429 </v>
   <v>       0.14285714      -0.14285714       0.28571429 </v>
   <v>       0.28571429      -0.14285714       0.28571429 </v>
   <v>       0.42857143      -0.14285714       0.28571429 </v>
   <v>      -0.42857143      -0.14285714       0.28571429 </v>
   <v>      -0.28571429      -0.14285714       0.28571429 </v>
   <v>      -0.14285714      -0.14285714       0.28571429 </v>
   <v>       0.00000000       0.00000000       0.42857143 </v>
   <v>       0.14285714      -0.00000000       0.42857143 </v>
   <v>       0.28571429      -0.00000000       0.42857143 </v>
   <v>       0.42857143       0.00000000       0.42857143 </v>
   <v>      -0.42857143       0.00000000       0.42857143 </v>
   <v>      -0.28571429       0.00000000       0.42857143 </v>
   <v>      -0.14285714       0.00000000       0.42857143 </v>
   <v>       0.00000000       0.14285714       0.42857143 </v>
   <v>       0.14285714       0.14285714       0.42857143 </v>
   <v>       0.28571429       0.14285714       0.42857143 </v>
   <v>       0.42857143       0.14285714       0.42857143 </v>
   <v>      -0.42857143       0.14285714       0.42857143 </v>
   <v>      -0.28571429       0.14285714       0.42857143 </v>
   <v>      -0.14285714       0.14285714       0.42857143 </v>
   <v>       0.00000000       0.28571429       0.42857143 </v>
   <v>       0.14285714       0.28571429       0.42857143 </v>
   <v>       0.28571429       0.28571429       0.42857143 </v>
   <v>       0.42857143       0.28571429       0.42857143 </v>
   <v>      -0.42857143       0.28571429       0.42857143 </v>
   <v>      -0.28571429       0.28571429       0.42857143 </v>
   <v>      -0.14285714       0.28571429       0.42857143 </v>
   <v>       0.00000000       0.42857143       0.42857143 </v>
   <v>       0.14285714       0.42857143       0.42857143 </v>
   <v>       0.28571429       0.42857143       0.42857143 </v>
   <v>       0.42857143       0.42857143       0.42857143 </v>
   <v>      -0.42857143       0.42857143       0.42857143 </v>
   <v>      -0.28571429       0.42857143       0.42857143 </v>
   <v>      -0.14285714       0.42857143       0.42857143 </v>
   <v>       0.00000000      -0.42857143       0.42857143 </v>
   <v>       0.14285714      -0.42857143       0.42857143 </v>
   <v>       0.28571429      -0.42857143       0.42857143 </v>
   <v>       0.42857143      -0.42857143       0.42857143 </v>
   <v>      -0.42857143      -0.42857143       0.42857143 </v>
   <v>      -0.28571429      -0.42857143       0.42857143 </v>
   <v>      -0.14285714      -0.42857143       0.42857143 </v>
   <v>       0.00000000      -0.28571429       0.42857143 </v>
   <v>       0.14285714      -0.28571429       0.42857143 </v>
   <v>       0.28571429      -0.28571429       0.42857143 </v>
   <v>       0.42857143      -0.28571429       0.42857143 </v>
   <v>      -0.42857143      -0.28571429       0.42857143 </v>
   <v>      -0.28571429      -0.28571429       0.42857143 </v>
   <v>      -0.14285714      -0.28571429       0.42857143 </v>
   <v>       0.00000000      -0.14285714       0.42857143 </v>
   <v>       0.14285714      -0.14285714       0.42857143 </v>
   <v>       0.28571429      -0.14285714       0.42857143 </v>
   <v>       0.42857143      -0.14285714       0.42857143 </v>
   <v>      -0.42857143      -0.14285714       0.42857143 </v>
   <v>      -0.28571429      -0.14285714       0.42857143 </v>
   <v>      -0.14285714      -0.14285714       0.42857143 </v>
   <v>       0.00000000       0.00000000      -0.42857143 </v>
   <v>       0.14285714      -0.00000000      -0.42857143 </v>
   <v>       0.28571429      -0.00000000      -0.42857143 </v>
   <v>       0.42857143      -0.00000000      -0.42857143 </v>
   <v>      -0.42857143      -0.00000000      -0.42857143 </v>
   <v>      -0.28571429       0.00000000      -0.42857143 </v>
   <v>      -0.14285714      -0.00000000      -0.42857143 </v>
   <v>       0.00000000       0.14285714      -0.42857143 </v>
   <v>       0.14285714       0.14285714      -0.42857143 </v>
   <v>       0.28571429       0.14285714      -0.42857143 </v>
   <v>       0.42857143       0.14285714      -0.42857143 </v>
   <v>      -0.42857143       0.14285714      -0.42857143 </v>
   <v>      -0.28571429       0.14285714      -0.42857143 </v>
   <v>      -0.14285714       0.14285714      -0.42857143 </v>
   <v>       0.00000000       0.28571429      -0.42857143 </v>
   <v>       0.14285714       0.28571429      -0.42857143 </v>
   <v>       0.28571429       0.28571429      -0.42857143 </v>
   <v>       0.42857143       0.28571429      -0.42857143 </v>
   <v>      -0.42857143       0.28571429      -0.42857143 </v>
   <v>      -0.28571429       0.28571429      -0.42857143 </v>
   <v>      -0.14285714       0.28571429      -0.42857143 </v>
   <v>      -0.00000000       0.42857143      -0.42857143 </v>
   <v>       0.14285714       0.42857143      -0.42857143 </v>
   <v>       0.28571429       0.42857143      -0.42857143 </v>
   <v>       0.42857143       0.42857143      -0.42857143 </v>
   <v>      -0.42857143       0.42857143      -0.42857143 </v>
   <v>      -0.28571429       0.42857143      -0.42857143 </v>
   <v>      -0.14285714       0.42857143      -0.42857143 </v>
   <v>       0.00000000      -0.42857143      -0.42857143 </v>
   <v>       0.14285714      -0.42857143      -0.42857143 </v>
   <v>       0.28571429      -0.42857143      -0.42857143 </v>
   <v>       0.42857143      -0.42857143      -0.42857143 </v>
   <v>      -0.42857143      -0.42857143      -0.42857143 </v>
   <v>      -0.28571429      -0.42857143      -0.42857143 </v>
   <v>      -0.14285714      -0.42857143      -0.42857143 </v>
   <v>       0.00000000      -0.28571429      -0.42857143 </v>
   <v>       0.14285714      -0.28571429      -0.42857143 </v>
   <v>       0.28571429      -0.28571429      -0.42857143 </v>
   <v>       0.42857143      -0.28571429      -0.42857143 </v>
   <v>      -0.42857143      -0.28571429      -0.42857143 </v>
   <v>      -0.28571429      -0.28571429      -0.42857143 </v>
   <v>      -0.14285714      -0.28571429      -0.42857143 </v>
   <v>       0.00000000      -0.14285714      -0.42857143 </v>
   <v>       0.14285714      -0.14285714      -0.42857143 </v>
   <v>       0.28571429      -0.14285714      -0.42857143 </v>
   <v>       0.42857143      -0.14285714      -0.42857143 </v>
   <v>      -0.42857143      -0.14285714      -0.42857143 </v>
   <v>      -0.28571429      -0.14285714      -0.42857143 </v>
   <v>      -0.14285714      -0.14285714      -0.42857143 </v>
   <v>       0.00000000       0.00000000      -0.28571429 </v>
   <v>       0.14285714      -0.00000000      -0.28571429 </v>
   <v>       0.28571429      -0.00000000      -0.28571429 </v>
   <v>       0.42857143       0.00000000      -0.28571429 </v>
   <v>      -0.42857143       0.00000000      -0.28571429 </v>
   <v>      -0.28571429       0.00000000      -0.28571429 </v>
   <v>      -0.14285714      -0.00000000      -0.28571429 </v>
   <v>       0.00000000       0.14285714      -0.28571429 </v>
   <v>       0.14285714       0.14285714      -0.28571429 </v>
   <v>       0.28571429       0.14285714      -0.28571429 </v>
   <v>       0.42857143       0.14285714      -0.28571429 </v>
   <v>      -0.42857143       0.14285714      -0.28571429 </v>
   <v>      -0.28571429       0.14285714      -0.28571429 </v>
   <v>      -0.14285714       0.14285714      -0.28571429 </v>
   <v>       0.00000000       0.28571429      -0.28571429 </v>
   <v>       0.14285714       0.28571429      -0.28571429 </v>
   <v>       0.28571429       0.28571429      -0.28571429 </v>
   <v>       0.42857143       0.28571429      -0.28571429 </v>
   <v>      -0.42857143       0.28571429      -0.28571429 </v>
   <v>      -0.28571429       0.28571429      -0.28571429 </v>
   <v>      -0.14285714       0.28571429      -0.28571429 </v>
   <v>       0.00000000       0.42857143      -0.28571429 </v>
   <v>       0.14285714       0.42857143      -0.28571429 </v>
   <v>       0.28571429       0.42857143      -0.28571429 </v>
   <v>       0.42857143       0.42857143      -0.28571429 </v>
   <v>      -0.42857143       0.42857143      -0.28571429 </v>
   <v>      -0.28571429       0.42857143      -0.28571429 </v>
   <v>      -0.14285714       0.42857143      -0.28571429 </v>
   <v>       0.00000000      -0.42857143      -0.28571429 </v>
   <v>       0.14285714      -0.42857143      -0.28571429 </v>
   <v>       0.28571429      -0.42857143      -0.28571429 </v>
   <v>       0.42857143      -0.42857143      -0.28571429 </v>
   <v>      -0.42857143      -0.42857143      -0.28571429 </v>
   <v>      -0.28571429      -0.42857143      -0.28571429 </v>
   <v>      -0.14285714      -0.42857143      -0.28571429 </v>
   <v>      -0.00000000      -0.28571429      -0.28571429 </v>
   <v>       0.14285714      -0.28571429      -0.28571429 </v>
   <v>       0.28571429      -0.28571429      -0.28571429 </v>
   <v>       0.42857143      -0.28571429      -0.28571429 </v>
   <v>      -0.42857143      -0.28571429      -0.28571429 </v>
   <v>      -0.28571429      -0.28571429      -0.28571429 </v>
   <v>      -0.14285714      -0.28571429      -0.28571429 </v>
   <v>       0.00000000      -0.14285714      -0.28571429 </v>
   <v>       0.14285714      -0.14285714      -0.28571429 </v>
   <v>       0.28571429      -0.14285714      -0.28571429 </v>
   <v>       0.42857143      -0.14285714      -0.28571429 </v>
   <v>      -0.42857143      -0.14285714      -0.28571429 </v>
   <v>      -0.28571429      -0.14285714      -0.28571429 </v>
   <v>      -0.14285714      -0.14285714      -0.28571429 </v>
   <v>       0.00000000      -0.00000000      -0.14285714 </v>
   <v>       0.14285714      -0.00000000      -0.14285714 </v>
   <v>       0.28571429      -0.00000000      -0.14285714 </v>
   <v>       0.42857143       0.00000000      -0.14285714 </v>
   <v>      -0.42857143      -0.00000000      -0.14285714 </v>
   <v>      -0.28571429       0.00000000      -0.14285714 </v>
   <v>      -0.14285714       0.00000000      -0.14285714 </v>
   <v>      -0.00000000       0.14285714      -0.14285714 </v>
   <v>       0.14285714       0.14285714      -0.14285714 </v>
   <v>       0.28571429       0.14285714      -0.14285714 </v>
   <v>       0.42857143       0.14285714      -0.14285714 </v>
   <v>      -0.42857143       0.14285714      -0.14285714 </v>
   <v>      -0.28571429       0.14285714      -0.14285714 </v>
   <v>      -0.14285714       0.14285714      -0.14285714 </v>
   <v>       0.00000000       0.28571429      -0.14285714 </v>
   <v>       0.14285714       0.28571429      -0.14285714 </v>
   <v>       0.28571429       0.28571429      -0.14285714 </v>
   <v>       0.42857143       0.28571429      -0.14285714 </v>
   <v>      -0.42857143       0.28571429      -0.14285714 </v>
   <v>      -0.28571429       0.28571429      -0.14285714 </v>
   <v>      -0.14285714       0.28571429      -0.14285714 </v>
   <v>      -0.00000000       0.42857143      -0.14285714 </v>
   <v>       0.14285714       0.42857143      -0.14285714 </v>
   <v>       0.28571429       0.42857143      -0.14285714 </v>
   <v>       0.42857143       0.42857143      -0.14285714 </v>
   <v>      -0.42857143       0.42857143      -0.14285714 </v>
   <v>      -0.28571429       0.42857143      -0.14285714 </v>
   <v>      -0.14285714       0.42857143      -0.14285714 </v>
   <v>      -0.00000000      -0.42857143      -0.14285714 </v>
   <v>       0.14285714      -0.42857143      -0.14285714 </v>
   <v>       0.28571429      -0.42857143      -0.14285714 </v>
   <v>       0.42857143      -0.42857143      -0.14285714 </v>
   <v>      -0.42857143      -0.42857143      -0.14285714 </v>
   <v>      -0.28571429      -0.42857143      -0.14285714 </v>
   <v>      -0.14285714      -0.42857143      -0.14285714 </v>
   <v>      -0.00000000      -0.28571429      -0.14285714 </v>
   <v>       0.14285714      -0.28571429      -0.14285714 </v>
   <v>       0.28571429      -0.28571429      -0.14285714 </v>
   <v>       0.42857143      -0.28571429      -0.14285714 </v>
   <v>      -0.42857143      -0.28571429      -0.14285714 </v>
   <v>      -0.28571429      -0.28571429      -0.14285714 </v>
   <v>      -0.14285714      -0.28571429      -0.14285714 </v>
   <v>       0.00000000      -0.14285714      -0.14285714 </v>
   <v>       0.14285714      -0.14285714      -0.14285714 </v>
   <v>       0.28571429      -0.14285714      -0.14285714 </v>
   <v>       0.42857143      -0.14285714      -0.14285714 </v>
   <v>      -0.42857143      -0.14285714      -0.14285714 </v>
   <v>      -0.28571429      -0.14285714      -0.14285714 </v>
   <v>      -0.14285714      -0.14285714      -0.14285714 </v>
  </varray>
  <varray name="weights" >
   <v>       0.00291545 </v>
   <v>       0.00291545 </v>
   <v>       0.00291545 </v>
   <v>       0.00291545 </v>
   <v>       0.00291545 </v>
   <v>       0.00291545 </v>
   <v>       0.00291545 </v>
   <v>       0.00291545 </v>
   <v>       0.00291545 </v>
   <v>       0.00291545 </v>
   <v>       0.00291545 </v>
   <v>       0.00291545 </v>
   <v>       0.00291545 </v>
   <v>       0.00291545 </v>
   <v>       0.00291545 </v>
   <v>       0.00291545 </v>
   <v>       0.00291545 </v>
   <v>       0.00291545 </v>
   <v>       0.00291545 </v>
   <v>       0.00291545 </v>
   <v>       0.00291545 </v>
   <v>       0.00291545 </v>
   <v>       0.00291545 </v>
   <v>       0.00291545 </v>
   <v>       0.00291545 </v>
   <v>       0.00291545 </v>
   <v>       0.00291545 </v>
   <v>       0.00291545 </v>
   <v>       0.00291545 </v>
   <v>       0.00291545 </v>
   <v>       0.00291545 </v>
   <v>       0.00291545 </v>
   <v>       0.00291545 </v>
   <v>       0.00291545 </v>
   <v>       0.00291545 </v>
   <v>       0.00291545 </v>
   <v>       0.00291545 </v>
   <v>       0.00291545 </v>
   <v>       0.00291545 </v>
   <v>       0.00291545 </v>
   <v>       0.00291545 </v>
   <v>       0.00291545 </v>
   <v>       0.00291545 </v>
   <v>       0.00291545 </v>
   <v>       0.00291545 </v>
   <v>       0.00291545 </v>
   <v>       0.00291545 </v>
   <v>       0.00291545 </v>
   <v>       0.00291545 </v>
   <v>       0.00291545 </v>
   <v>       0.00291545 </v>
   <v>       0.00291545 </v>
   <v>       0.00291545 </v>
   <v>       0.00291545 </v>
   <v>       0.00291545 </v>
   <v>       0.00291545 </v>
   <v>       0.00291545 </v>
   <v>       0.00291545 </v>
   <v>       0.00291545 </v>
   <v>       0.00291545 </v>
   <v>       0.00291545 </v>
   <v>       0.00291545 </v>
   <v>       0.00291545 </v>
   <v>       0.00291545 </v>
   <v>       0.00291545 </v>
   <v>       0.00291545 </v>
   <v>       0.00291545 </v>
   <v>       0.00291545 </v>
   <v>       0.00291545 </v>
   <v>       0.00291545 </v>
   <v>       0.00291545 </v>
   <v>       0.00291545 </v>
   <v>       0.00291545 </v>
   <v>       0.00291545 </v>
   <v>       0.00291545 </v>
   <v>       0.00291545 </v>
   <v>       0.00291545 </v>
   <v>       0.00291545 </v>
   <v>       0.00291545 </v>
   <v>       0.00291545 </v>
   <v>       0.00291545 </v>
   <v>       0.00291545 </v>
   <v>       0.00291545 </v>
   <v>       0.00291545 </v>
   <v>       0.00291545 </v>
   <v>       0.00291545 </v>
   <v>       0.00291545 </v>
   <v>       0.00291545 </v>
   <v>       0.00291545 </v>
   <v>       0.00291545 </v>
   <v>       0.00291545 </v>
   <v>       0.00291545 </v>
   <v>       0.00291545 </v>
   <v>       0.00291545 </v>
   <v>       0.00291545 </v>
   <v>       0.00291545 </v>
   <v>       0.00291545 </v>
   <v>       0.00291545 </v>
   <v>       0.00291545 </v>
   <v>       0.00291545 </v>
   <v>       0.00291545 </v>
   <v>       0.00291545 </v>
   <v>       0.00291545 </v>
   <v>       0.00291545 </v>
   <v>       0.00291545 </v>
   <v>       0.00291545 </v>
   <v>       0.00291545 </v>
   <v>       0.00291545 </v>
   <v>       0.00291545 </v>
   <v>       0.00291545 </v>
   <v>       0.00291545 </v>
   <v>       0.00291545 </v>
   <v>       0.00291545 </v>
   <v>       0.00291545 </v>
   <v>       0.00291545 </v>
   <v>       0.00291545 </v>
   <v>       0.00291545 </v>
   <v>       0.00291545 </v>
   <v>       0.00291545 </v>
   <v>       0.00291545 </v>
   <v>       0.00291545 </v>
   <v>       0.00291545 </v>
   <v>       0.00291545 </v>
   <v>       0.00291545 </v>
   <v>       0.00291545 </v>
   <v>       0.00291545 </v>
   <v>       0.00291545 </v>
   <v>       0.00291545 </v>
   <v>       0.00291545 </v>
   <v>       0.00291545 </v>
   <v>       0.00291545 </v>
   <v>       0.00291545 </v>
   <v>       0.00291545 </v>
   <v>       0.00291545 </v>
   <v>       0.00291545 </v>
   <v>       0.00291545 </v>
   <v>       0.00291545 </v>
   <v>       0.00291545 </v>
   <v>       0.00291545 </v>
   <v>       0.00291545 </v>
   <v>       0.00291545 </v>
   <v>       0.00291545 </v>
   <v>       0.00291545 </v>
   <v>       0.00291545 </v>
   <v>       0.00291545 </v>
   <v>       0.00291545 </v>
   <v>       0.00291545 </v>
   <v>       0.00291545 </v>
   <v>       0.00291545 </v>
   <v>       0.00291545 </v>
   <v>       0.00291545 </v>
   <v>       0.00291545 </v>
   <v>       0.00291545 </v>
   <v>       0.00291545 </v>
   <v>       0.00291545 </v>
   <v>       0.00291545 </v>
   <v>       0.00291545 </v>
   <v>       0.00291545 </v>
   <v>       0.00291545 </v>
   <v>       0.00291545 </v>
   <v>       0.00291545 </v>
   <v>       0.00291545 </v>
   <v>       0.00291545 </v>
   <v>       0.00291545 </v>
   <v>       0.00291545 </v>
   <v>       0.00291545 </v>
   <v>       0.00291545 </v>
   <v>       0.00291545 </v>
   <v>       0.00291545 </v>
   <v>       0.00291545 </v>
   <v>       0.00291545 </v>
   <v>       0.00291545 </v>
   <v>       0.00291545 </v>
   <v>       0.00291545 </v>
   <v>       0.00291545 </v>
   <v>       0.00291545 </v>
   <v>       0.00291545 </v>
   <v>       0.00291545 </v>
   <v>       0.00291545 </v>
   <v>       0.00291545 </v>
   <v>       0.00291545 </v>
   <v>       0.00291545 </v>
   <v>       0.00291545 </v>
   <v>       0.00291545 </v>
   <v>       0.00291545 </v>
   <v>       0.00291545 </v>
   <v>       0.00291545 </v>
   <v>       0.00291545 </v>
   <v>       0.00291545 </v>
   <v>       0.00291545 </v>
   <v>       0.00291545 </v>
   <v>       0.00291545 </v>
   <v>       0.00291545 </v>
   <v>       0.00291545 </v>
   <v>       0.00291545 </v>
   <v>       0.00291545 </v>
   <v>       0.00291545 </v>
   <v>       0.00291545 </v>
   <v>       0.00291545 </v>
   <v>       0.00291545 </v>
   <v>       0.00291545 </v>
   <v>       0.00291545 </v>
   <v>       0.00291545 </v>
   <v>       0.00291545 </v>
   <v>       0.00291545 </v>
   <v>       0.00291545 </v>
   <v>       0.00291545 </v>
   <v>       0.00291545 </v>
   <v>       0.00291545 </v>
   <v>       0.00291545 </v>
   <v>       0.00291545 </v>
   <v>       0.00291545 </v>
   <v>       0.00291545 </v>
   <v>       0.00291545 </v>
   <v>       0.00291545 </v>
   <v>       0.00291545 </v>
   <v>       0.00291545 </v>
   <v>       0.00291545 </v>
   <v>       0.00291545 </v>
   <v>       0.00291545 </v>
   <v>       0.00291545 </v>
   <v>       0.00291545 </v>
   <v>       0.00291545 </v>
   <v>       0.00291545 </v>
   <v>       0.00291545 </v>
   <v>       0.00291545 </v>
   <v>       0.00291545 </v>
   <v>       0.00291545 </v>
   <v>       0.00291545 </v>
   <v>       0.00291545 </v>
   <v>       0.00291545 </v>
   <v>       0.00291545 </v>
   <v>       0.00291545 </v>
   <v>       0.00291545 </v>
   <v>       0.00291545 </v>
   <v>       0.00291545 </v>
   <v>       0.00291545 </v>
   <v>       0.00291545 </v>
   <v>       0.00291545 </v>
   <v>       0.00291545 </v>
   <v>       0.00291545 </v>
   <v>       0.00291545 </v>
   <v>       0.00291545 </v>
   <v>       0.00291545 </v>
   <v>       0.00291545 </v>
   <v>       0.00291545 </v>
   <v>       0.00291545 </v>
   <v>       0.00291545 </v>
   <v>       0.00291545 </v>
   <v>       0.00291545 </v>
   <v>       0.00291545 </v>
   <v>       0.00291545 </v>
   <v>       0.00291545 </v>
   <v>       0.00291545 </v>
   <v>       0.00291545 </v>
   <v>       0.00291545 </v>
   <v>       0.00291545 </v>
   <v>       0.00291545 </v>
   <v>       0.00291545 </v>
   <v>       0.00291545 </v>
   <v>       0.00291545 </v>
   <v>       0.00291545 </v>
   <v>       0.00291545 </v>
   <v>       0.00291545 </v>
   <v>       0.00291545 </v>
   <v>       0.00291545 </v>
   <v>       0.00291545 </v>
   <v>       0.00291545 </v>
   <v>       0.00291545 </v>
   <v>       0.00291545 </v>
   <v>       0.00291545 </v>
   <v>       0.00291545 </v>
   <v>       0.00291545 </v>
   <v>       0.00291545 </v>
   <v>       0.00291545 </v>
   <v>       0.00291545 </v>
   <v>       0.00291545 </v>
   <v>       0.00291545 </v>
   <v>       0.00291545 </v>
   <v>       0.00291545 </v>
   <v>       0.00291545 </v>
   <v>       0.00291545 </v>
   <v>       0.00291545 </v>
   <v>       0.00291545 </v>
   <v>       0.00291545 </v>
   <v>       0.00291545 </v>
   <v>       0.00291545 </v>
   <v>       0.00291545 </v>
   <v>       0.00291545 </v>
   <v>       0.00291545 </v>
   <v>       0.00291545 </v>
   <v>       0.00291545 </v>
   <v>       0.00291545 </v>
   <v>       0.00291545 </v>
   <v>       0.00291545 </v>
   <v>       0.00291545 </v>
   <v>       0.00291545 </v>
   <v>       0.00291545 </v>
   <v>       0.00291545 </v>
   <v>       0.00291545 </v>
   <v>       0.00291545 </v>
   <v>       0.00291545 </v>
   <v>       0.00291545 </v>
   <v>       0.00291545 </v>
   <v>       0.00291545 </v>
   <v>       0.00291545 </v>
   <v>       0.00291545 </v>
   <v>       0.00291545 </v>
   <v>       0.00291545 </v>
   <v>       0.00291545 </v>
   <v>       0.00291545 </v>
   <v>       0.00291545 </v>
   <v>       0.00291545 </v>
   <v>       0.00291545 </v>
   <v>       0.00291545 </v>
   <v>       0.00291545 </v>
   <v>       0.00291545 </v>
   <v>       0.00291545 </v>
   <v>       0.00291545 </v>
   <v>       0.00291545 </v>
   <v>       0.00291545 </v>
   <v>       0.00291545 </v>
   <v>       0.00291545 </v>
   <v>       0.00291545 </v>
   <v>       0.00291545 </v>
   <v>       0.00291545 </v>
   <v>       0.00291545 </v>
   <v>       0.00291545 </v>
   <v>       0.00291545 </v>
   <v>       0.00291545 </v>
   <v>       0.00291545 </v>
   <v>       0.00291545 </v>
   <v>       0.00291545 </v>
   <v>       0.00291545 </v>
   <v>       0.00291545 </v>
   <v>       0.00291545 </v>
   <v>       0.00291545 </v>
   <v>       0.00291545 </v>
   <v>       0.00291545 </v>
   <v>       0.00291545 </v>
   <v>       0.00291545 </v>
   <v>       0.00291545 </v>
   <v>       0.00291545 </v>
  </varray>
 </kpoints>
 <parameters>
  <separator name="general" >
   <i type="string" name="SYSTEM">Og_FCC</i>
   <i type="logical" name="LCOMPAT"> F  </i>
  </separator>
  <separator name="electronic" >
   <i type="string" name="PREC">accura</i>
   <i name="ENMAX">    300.00000000</i>
   <i name="ENAUG">    605.90000000</i>
   <i name="EDIFF">      0.00000001</i>
   <i type="int" name="IALGO">    38</i>
   <i type="int" name="IWAVPR">    10</i>
   <i type="int" name="NBANDS">    20</i>
   <i name="NELECT">      8.00000000</i>
   <i type="int" name="TURBO">     0</i>
   <i type="int" name="IRESTART">     0</i>
   <i type="int" name="NREBOOT">     0</i>
   <i type="int" name="NMIN">     0</i>
   <i name="EREF">      0.00000000</i>
   <separator name="electronic smearing" >
    <i type="int" name="ISMEAR">     0</i>
    <i name="SIGMA">      0.00100000</i>
    <i name="KSPACING">      0.50000000</i>
    <i type="logical" name="KGAMMA"> T  </i>
   </separator>
   <separator name="electronic projectors" >
    <i type="logical" name="LREAL"> F  </i>
    <v name="ROPT">      0.00000000</v>
    <i type="int" name="LMAXPAW">  -100</i>
    <i type="int" name="LMAXMIX">     2</i>
    <i type="logical" name="NLSPLINE"> F  </i>
   </separator>
   <separator name="electronic startup" >
    <i type="int" name="ISTART">     1</i>
    <i type="int" name="ICHARG">     0</i>
    <i type="int" name="INIWAV">     1</i>
   </separator>
   <separator name="electronic spin" >
    <i type="int" name="ISPIN">     1</i>
    <i type="logical" name="LNONCOLLINEAR"> T  </i>
    <v name="MAGMOM">      1.00000000      1.00000000      1.00000000</v>
    <i name="NUPDOWN">     -1.00000000</i>
    <i type="logical" name="LSORBIT"> T  </i>
    <v name="SAXIS">      0.00000000      0.00000000      1.00000000</v>
    <i type="logical" name="LSPIRAL"> F  </i>
    <v name="QSPIRAL">      0.00000000      0.00000000      0.00000000</v>
    <i type="logical" name="LZEROZ"> F  </i>
   </separator>
   <separator name="electronic exchange-correlation" >
    <i type="logical" name="LASPH"> F  </i>
    <i type="logical" name="LMETAGGA"> F  </i>
   </separator>
   <separator name="electronic convergence" >
    <i type="int" name="NELM">    50</i>
    <i type="int" name="NELMDL">    -5</i>
    <i type="int" name="NELMIN">     2</i>
    <i name="ENINI">    300.00000000</i>
    <separator name="electronic convergence detail" >
     <i type="logical" name="LDIAG"> T  </i>
     <i type="logical" name="LSUBROT"> F  </i>
     <i name="WEIMIN">      0.00000000</i>
     <i name="EBREAK">      0.00000000</i>
     <i name="DEPER">      0.30000000</i>
     <i type="int" name="NRMM">     4</i>
     <i name="TIME">      0.40000000</i>
    </separator>
   </separator>
   <separator name="electronic mixer" >
    <i name="AMIX">      0.40000000</i>
    <i name="BMIX">      1.00000000</i>
    <i name="AMIN">      0.10000000</i>
    <i name="AMIX_MAG">      1.60000000</i>
    <i name="BMIX_MAG">      1.00000000</i>
    <separator name="electronic mixer details" >
     <i type="int" name="IMIX">     4</i>
     <i type="logical" name="MIXFIRST"> F  </i>
     <i type="int" name="MAXMIX">    50</i>
     <i name="WC">    100.00000000</i>
     <i type="int" name="INIMIX">     1</i>
     <i type="int" name="MIXPRE">     1</i>
     <i type="int" name="MREMOVE">     5</i>
    </separator>
   </separator>
   <separator name="electronic dipolcorrection" >
    <i type="logical" name="LDIPOL"> F  </i>
    <i type="logical" name="LMONO"> F  </i>
    <i type="int" name="IDIPOL">     0</i>
    <i name="EPSILON">      1.00000000</i>
    <v name="DIPOL">   -100.00000000   -100.00000000   -100.00000000</v>
    <i name="EFIELD">      0.00000000</i>
   </separator>
  </separator>
  <separator name="grids" >
   <i type="int" name="NGX">    24</i>
   <i type="int" name="NGY">    24</i>
   <i type="int" name="NGZ">    24</i>
   <i type="int" name="NGXF">    48</i>
   <i type="int" name="NGYF">    48</i>
   <i type="int" name="NGZF">    48</i>
   <i type="logical" name="ADDGRID"> T  </i>
  </separator>
  <separator name="ionic" >
   <i type="int" name="NSW">     1</i>
   <i type="int" name="IBRION">    -1</i>
   <i type="int" name="MDALGO">     0</i>
   <i type="int" name="ISIF">     3</i>
   <i name="PSTRESS">      0.00000000</i>
   <i name="EDIFFG">      0.00001000</i>
   <i type="int" name="NFREE">     5</i>
   <i name="POTIM">      0.10000000</i>
   <i name="SMASS">     -3.00000000</i>
   <i name="SCALEE">      1.00000000</i>
  </separator>
  <separator name="ionic md" >
   <i name="TEBEG">      0.00010000</i>
   <i name="TEEND">      0.00010000</i>
   <i type="int" name="NBLOCK">     1</i>
   <i type="int" name="KBLOCK">     1</i>
   <i type="int" name="NPACO">   256</i>
   <i name="APACO">     16.00000000</i>
  </separator>
  <separator name="symmetry" >
   <i type="int" name="ISYM">     0</i>
   <i name="SYMPREC">      0.00000010</i>
  </separator>
  <separator name="dos" >
   <i type="int" name="LORBIT">     0</i>
   <v name="RWIGS">     -1.00000000</v>
   <i type="int" name="NEDOS">   301</i>
   <i name="EMIN">     10.00000000</i>
   <i name="EMAX">    -10.00000000</i>
   <i name="EFERMI">      0.00000000</i>
  </separator>
  <separator name="writing" >
   <i type="int" name="NWRITE">     2</i>
   <i type="logical" name="LWAVE"> T  </i>
   <i type="logical" name="LDOWNSAMPLE"> F  </i>
   <i type="logical" name="LCHARG"> F  </i>
   <i type="logical" name="LPARD"> F  </i>
   <i type="logical" name="LVTOT"> F  </i>
   <i type="logical" name="LVHAR"> F  </i>
   <i type="logical" name="LELF"> F  </i>
   <i type="logical" name="LOPTICS"> T  </i>
   <v name="STM">      0.00000000      0.00000000      0.00000000      0.00000000      0.00000000      0.00000000      0.00000000</v>
  </separator>
  <separator name="performance" >
   <i type="int" name="NPAR">     4</i>
   <i type="int" name="NSIM">     4</i>
   <i type="int" name="NBLK">    -1</i>
   <i type="logical" name="LPLANE"> T  </i>
   <i type="logical" name="LSCALAPACK"> T  </i>
   <i type="logical" name="LSCAAWARE"> F  </i>
   <i type="logical" name="LSCALU"> F  </i>
   <i type="logical" name="LASYNC"> F  </i>
   <i type="logical" name="LORBITALREAL"> F  </i>
  </separator>
  <separator name="miscellaneous" >
   <i type="int" name="IDIOT">     3</i>
   <i type="int" name="ISPECIAL">     0</i>
   <i type="logical" name="LMUSIC"> F  </i>
   <v name="POMASS">    131.29400000</v>
   <v name="DARWINR">      0.00000000</v>
   <v name="DARWINV">      1.00000000</v>
   <i type="logical" name="LCORR"> T  </i>
  </separator>
  <i type="logical" name="GGA_COMPAT"> F  </i>
  <i type="logical" name="LBERRY"> F  </i>
  <i type="int" name="ICORELEVEL">     0</i>
  <i type="logical" name="LDAU"> F  </i>
  <i type="int" name="I_CONSTRAINED_M">     0</i>
  <separator name="electronic exchange-correlation" >
   <i type="string" name="GGA">PE</i>
   <i type="int" name="VOSKOWN">     0</i>
   <i type="logical" name="LHFCALC"> F  </i>
   <i type="string" name="PRECFOCK"></i>
   <i type="logical" name="LSYMGRAD"> F  </i>
   <i type="logical" name="LHFONE"> F  </i>
   <i type="logical" name="LRHFCALC"> F  </i>
   <i type="logical" name="LTHOMAS"> F  </i>
   <i type="logical" name="LMODELHF"> F  </i>
   <i name="ENCUT4O">     -1.00000000</i>
   <i type="int" name="EXXOEP">     0</i>
   <i type="int" name="FOURORBIT">     0</i>
   <i name="AEXX">      0.00000000</i>
   <i name="HFALPHA">      0.00000000</i>
   <i name="MCALPHA">      0.00000000</i>
   <i name="ALDAX">      1.00000000</i>
   <i name="AGGAX">      1.00000000</i>
   <i name="ALDAC">      1.00000000</i>
   <i name="AGGAC">      1.00000000</i>
   <i type="int" name="NKREDX">     1</i>
   <i type="int" name="NKREDY">     1</i>
   <i type="int" name="NKREDZ">     1</i>
   <i type="logical" name="SHIFTRED"> F  </i>
   <i type="logical" name="ODDONLY"> F  </i>
   <i type="logical" name="EVENONLY"> F  </i>
   <i type="int" name="LMAXFOCK">     0</i>
   <i type="int" name="NMAXFOCKAE">     0</i>
   <i type="logical" name="LFOCKAEDFT"> F  </i>
   <i name="HFSCREEN">      0.00000000</i>
   <i name="HFSCREENC">      0.00000000</i>
   <i type="int" name="NBANDSGWLOW">     0</i>
  </separator>
  <separator name="vdW DFT" >
   <i type="logical" name="LUSE_VDW"> F  </i>
   <i name="Zab_VDW">     -0.84910000</i>
   <i name="PARAM1">      0.12340000</i>
   <i name="PARAM2">      1.00000000</i>
   <i name="PARAM3">      0.00000000</i>
  </separator>
  <separator name="model GW" >
   <i type="int" name="MODEL_GW">     0</i>
   <i name="MODEL_EPS0">     34.58619660</i>
   <i name="MODEL_ALPHA">      1.00000000</i>
  </separator>
  <separator name="linear response parameters" >
   <i type="logical" name="LEPSILON"> F  </i>
   <i type="logical" name="LRPA"> F  </i>
   <i type="logical" name="LNABLA"> F  </i>
   <i type="logical" name="LVEL"> F  </i>
   <i type="int" name="KINTER">     0</i>
   <i name="CSHIFT">      0.10000000</i>
   <i name="OMEGAMAX">     -1.00000000</i>
   <i name="DEG_THRESHOLD">      0.00200000</i>
   <i name="RTIME">     -0.10000000</i>
   <i name="WPLASMAI">      0.00000000</i>
   <v name="DFIELD">      0.00000000      0.00000000      0.00000000</v>
   <v name="WPLASMA">      0.00000000      0.00000000      0.00000000      0.00000000      0.00000000      0.00000000      0.00000000      0.00000000      0.00000000</v>
  </separator>
  <separator name="orbital magnetization" >
   <i type="logical" name="NUCIND"> F  </i>
   <v name="MAGPOS">      0.00000000      0.00000000      0.00000000</v>
   <i type="logical" name="LNICSALL"> T  </i>
   <i type="logical" name="ORBITALMAG"> F  </i>
   <i type="logical" name="LMAGBLOCH"> F  </i>
   <i type="logical" name="LCHIMAG"> F  </i>
   <i type="logical" name="LGAUGE"> T  </i>
   <i type="int" name="MAGATOM">     0</i>
   <v name="MAGDIPOL">      0.00000000      0.00000000      0.00000000</v>
   <v name="AVECCONST">      0.00000000      0.00000000      0.00000000</v>
  </separator>
  <separator name="response functions" >
   <i type="logical" name="LADDER"> F  </i>
   <i type="logical" name="LRPAFORCE"> F  </i>
   <i type="logical" name="LFXC"> F  </i>
   <i type="logical" name="LHARTREE"> T  </i>
   <i type="int" name="IBSE">     0</i>
   <v type="int" name="KPOINT">    -1     0     0     0</v>
   <i type="logical" name="LTCTE"> F  </i>
   <i type="logical" name="LTETE"> F  </i>
   <i type="logical" name="LTRIPLET"> F  </i>
   <i type="logical" name="LFXCEPS"> F  </i>
   <i type="logical" name="LFXHEG"> F  </i>
   <i type="int" name="NATURALO">     2</i>
   <i type="logical" name="L2ORDER"> F  </i>
   <i type="logical" name="LMP2LT"> F  </i>
   <i type="logical" name="LUSEW"> F  </i>
   <i name="ENCUTGW">     -2.00000000</i>
   <i name="ENCUTGWSOFT">     -2.00000000</i>
   <i name="ENCUTLF">     -1.00000000</i>
   <i type="int" name="LMAXMP2">    -1</i>
   <i name="SCISSOR">      0.00000000</i>
   <i type="int" name="NOMEGA">     0</i>
   <i type="int" name="NOMEGAR">     0</i>
   <i type="int" name="NBANDSGW">    -1</i>
   <i type="int" name="NBANDSO">    -1</i>
   <i type="int" name="NBANDSV">    -1</i>
   <i type="int" name="NELM">    50</i>
   <i type="int" name="NELMHF">     1</i>
   <i type="int" name="DIM">     3</i>
   <i type="int" name="ANTIRES">     0</i>
   <i name="OMEGAMAX">    -30.00000000</i>
   <i name="OMEGAMIN">    -30.00000000</i>
   <i name="OMEGATL">   -200.00000000</i>
   <i type="int" name="OMEGAGRID">   140</i>
   <i name="CSHIFT">     -0.10000000</i>
   <i type="logical" name="SELFENERGY"> F  </i>
   <i type="logical" name="LSPECTRAL"> F  </i>
   <i type="logical" name="LSPECTRALGW"> F  </i>
   <i type="logical" name="LSINGLES"> F  </i>
   <i type="logical" name="LFERMIGW"> F  </i>
   <i type="logical" name="ODDONLYGW"> F  </i>
   <i type="logical" name="EVENONLYGW"> F  </i>
   <i type="int" name="NKREDLFX">     1</i>
   <i type="int" name="NKREDLFY">     1</i>
   <i type="int" name="NKREDLFZ">     1</i>
   <i type="int" name="MAXMEM">  2800</i>
   <i type="int" name="TELESCOPE">     0</i>
   <i type="int" name="TAUPAR">     1</i>
   <i type="int" name="OMEGAPAR">    -1</i>
   <i name="LAMBDA">      1.00000000</i>
  </separator>
  <separator name="External order field" >
   <i name="OFIELD_KAPPA">      0.00000000</i>
   <v name="OFIELD_K">      0.00000000      0.00000000      0.00000000</v>
   <i name="OFIELD_Q6_NEAR">      0.00000000</i>
   <i name="OFIELD_Q6_FAR">      0.00000000</i>
   <i name="OFIELD_A">      0.00000000</i>
  </separator>
 </parameters>
 <atominfo>
  <atoms>       1 </atoms>
  <types>       1 </types>
  <array name="atoms" >
   <dimension dim="1">ion</dimension>
   <field type="string">element</field>
   <field type="int">atomtype</field>
   <set>
    <rc><c>Xe</c><c>   1</c></rc>
   </set>
  </array>
  <array name="atomtypes" >
   <dimension dim="1">type</dimension>
   <field type="int">atomspertype</field>
   <field type="string">element</field>
   <field>mass</field>
   <field>valence</field>
   <field type="string">pseudopotential</field>
   <set>
    <rc><c>   1</c><c>Xe</c><c>    131.29400000</c><c>      8.00000000</c><c>  PAW_PBE Xe_GW 08Jan2009               </c></rc>
   </set>
  </array>
 </atominfo>
 <structure name="initialpos" >
  <crystal>
   <varray name="basis" >
    <v>       4.33599578       0.00000000       0.00000000 </v>
    <v>       2.16799789       3.75508250      -0.00000000 </v>
    <v>       2.16799789       1.25169417       3.54032573 </v>
   </varray>
   <i name="volume">     57.64366099 </i>
   <varray name="rec_basis" >
    <v>       0.23062753      -0.13315287      -0.09415330 </v>
    <v>       0.00000000       0.26630573      -0.09415330 </v>
    <v>      -0.00000000       0.00000000       0.28245989 </v>
   </varray>
  </crystal>
  <varray name="positions" >
   <v>       0.00000000       0.00000000       0.00000000 </v>
  </varray>
  <varray name="velocities" >
   <v>       0.00000000       0.00000000       0.00000000 </v>
  </varray>
 </structure>
 <calculation>
  <scstep>
   <time name="dav">    1.40    1.40</time>
   <time name="total">    1.45    1.46</time>
   <energy>
    <i name="alphaZ">     22.61767795 </i>
    <i name="ewald">   -344.53113738 </i>
    <i name="hartreedc">    -69.21998527 </i>
    <i name="XCdc">    -72.68681787 </i>
    <i name="pawpsdc">    406.60730982 </i>
    <i name="pawaedc">   -318.76703420 </i>
    <i name="eentropy">      0.00000000 </i>
    <i name="bandstr">    -53.80401309 </i>
    <i name="atom">    429.50278051 </i>
    <i name="e_fr_energy">     -0.28121953 </i>
    <i name="e_wo_entrp">     -0.28121953 </i>
    <i name="e_0_energy">     -0.28121953 </i>
   </energy>
  </scstep>
  <scstep>
   <time name="dav">    1.51    1.52</time>
   <time name="total">    1.52    1.52</time>
   <energy>
    <i name="e_fr_energy">     -0.28340133 </i>
    <i name="e_wo_entrp">     -0.28340133 </i>
    <i name="e_0_energy">     -0.28340133 </i>
   </energy>
  </scstep>
  <scstep>
   <time name="dav">    1.60    1.60</time>
   <time name="total">    1.60    1.60</time>
   <energy>
    <i name="e_fr_energy">     -0.28341620 </i>
    <i name="e_wo_entrp">     -0.28341620 </i>
    <i name="e_0_energy">     -0.28341620 </i>
   </energy>
  </scstep>
  <scstep>
   <time name="dav">    1.58    1.59</time>
   <time name="total">    1.59    1.59</time>
   <energy>
    <i name="e_fr_energy">     -0.28341646 </i>
    <i name="e_wo_entrp">     -0.28341646 </i>
    <i name="e_0_energy">     -0.28341646 </i>
   </energy>
  </scstep>
  <scstep>
   <time name="dav">    1.58    1.58</time>
   <time name="total">    1.65    1.65</time>
   <energy>
    <i name="e_fr_energy">     -0.28341647 </i>
    <i name="e_wo_entrp">     -0.28341647 </i>
    <i name="e_0_energy">     -0.28341647 </i>
   </energy>
  </scstep>
  <scstep>
   <time name="dav">    1.38    1.38</time>
   <time name="total">    1.50    1.50</time>
   <energy>
    <i name="e_fr_energy">     -0.16443538 </i>
    <i name="e_wo_entrp">     -0.16443538 </i>
    <i name="e_0_energy">     -0.16443538 </i>
   </energy>
  </scstep>
  <scstep>
   <time name="dav">    1.46    1.46</time>
   <time name="total">    1.58    1.58</time>
   <energy>
    <i name="e_fr_energy">     -0.13560018 </i>
    <i name="e_wo_entrp">     -0.13560018 </i>
    <i name="e_0_energy">     -0.13560018 </i>
   </energy>
  </scstep>
  <scstep>
   <time name="dav">    1.51    1.50</time>
   <time name="total">    1.62    1.62</time>
   <energy>
    <i name="e_fr_energy">     -0.13567834 </i>
    <i name="e_wo_entrp">     -0.13567834 </i>
    <i name="e_0_energy">     -0.13567834 </i>
   </energy>
  </scstep>
  <scstep>
   <time name="dav">    1.47    1.47</time>
   <time name="total">    1.59    1.59</time>
   <energy>
    <i name="e_fr_energy">     -0.13570483 </i>
    <i name="e_wo_entrp">     -0.13570483 </i>
    <i name="e_0_energy">     -0.13570483 </i>
   </energy>
  </scstep>
  <scstep>
   <time name="dav">    1.46    1.46</time>
   <time name="total">    1.58    1.58</time>
   <energy>
    <i name="e_fr_energy">     -0.13572435 </i>
    <i name="e_wo_entrp">     -0.13572435 </i>
    <i name="e_0_energy">     -0.13572435 </i>
   </energy>
  </scstep>
  <scstep>
   <time name="dav">    1.49    1.49</time>
   <time name="total">    1.61    1.61</time>
   <energy>
    <i name="e_fr_energy">     -0.13572512 </i>
    <i name="e_wo_entrp">     -0.13572512 </i>
    <i name="e_0_energy">     -0.13572512 </i>
   </energy>
  </scstep>
  <scstep>
   <time name="dav">    1.52    1.52</time>
   <time name="total">    1.63    1.63</time>
   <energy>
    <i name="e_fr_energy">     -0.13572500 </i>
    <i name="e_wo_entrp">     -0.13572500 </i>
    <i name="e_0_energy">     -0.13572500 </i>
   </energy>
  </scstep>
  <scstep>
   <time name="dav">    1.51    1.51</time>
   <time name="total">    1.63    1.63</time>
   <energy>
    <i name="e_fr_energy">     -0.13572499 </i>
    <i name="e_wo_entrp">     -0.13572499 </i>
    <i name="e_0_energy">     -0.13572499 </i>
   </energy>
  </scstep>
  <scstep>
   <time name="dav">    1.47    1.47</time>
   <time name="total">    1.59    1.59</time>
   <energy>
    <i name="e_fr_energy">     -0.13572507 </i>
    <i name="e_wo_entrp">     -0.13572507 </i>
    <i name="e_0_energy">     -0.13572507 </i>
   </energy>
  </scstep>
  <scstep>
   <time name="dav">    1.13    1.13</time>
   <time name="total">    1.17    1.17</time>
   <energy>
    <i name="alphaZ">     22.61767795 </i>
    <i name="ewald">   -344.53113738 </i>
    <i name="hartreedc">    -64.62091477 </i>
    <i name="XCdc">    -72.80521574 </i>
    <i name="pawpsdc">    432.51395987 </i>
    <i name="pawaedc">   -344.40445781 </i>
    <i name="eentropy">      0.00000000 </i>
    <i name="bandstr">    -58.40841768 </i>
    <i name="atom">    429.50278051 </i>
    <i name="e_fr_energy">     -0.13572506 </i>
    <i name="e_wo_entrp">     -0.13572506 </i>
    <i name="e_0_energy">     -0.13572506 </i>
   </energy>
  </scstep>
  <structure>
   <crystal>
    <varray name="basis" >
     <v>       4.33599578       0.00000000       0.00000000 </v>
     <v>       2.16799789       3.75508250      -0.00000000 </v>
     <v>       2.16799789       1.25169417       3.54032573 </v>
    </varray>
    <i name="volume">     57.64366099 </i>
    <varray name="rec_basis" >
     <v>       0.23062753      -0.13315287      -0.09415330 </v>
     <v>       0.00000000       0.26630573      -0.09415330 </v>
     <v>      -0.00000000       0.00000000       0.28245989 </v>
    </varray>
   </crystal>
   <varray name="positions" >
    <v>       0.00000000       0.00000000       0.00000000 </v>
   </varray>
  </structure>
  <varray name="forces" >
   <v>       0.00000000      -0.00000000       0.00000000 </v>
  </varray>
  <varray name="stress" >
   <v>       1.86684283       0.00001287       0.00000591 </v>
   <v>       0.00001291       1.86682446       0.00000618 </v>
   <v>       0.00000585       0.00000623       1.86683010 </v>
  </varray>
  <energy>
   <i name="e_fr_energy">     -0.32105922 </i>
   <i name="e_wo_entrp">     -0.32105922 </i>
   <i name="e_0_energy">      0.00000000 </i>
  </energy>
  <time name="totalsc">   25.16   25.33</time>
  <eigenvalues>
   <array>
    <dimension dim="1">band</dimension>
    <dimension dim="2">kpoint</dimension>
    <dimension dim="3">spin</dimension>
    <field>eigene</field>
    <field>occ</field>
    <set>
     <set comment="spin 1">
      <set comment="kpoint 1">
       <r>  -16.1278    1.0000 </r>
       <r>  -16.1278    1.0000 </r>
       <r>   -4.6028    1.0000 </r>
       <r>   -4.6028    1.0000 </r>
       <r>   -3.2473    1.0000 </r>
       <r>   -3.2473    1.0000 </r>
       <r>   -3.2473    1.0000 </r>
       <r>   -3.2473    1.0000 </r>
       <r>    2.5523    0.0000 </r>
       <r>    2.5523    0.0000 </r>
       <r>    7.0011    0.0000 </r>
       <r>    7.0011    0.0000 </r>
       <r>    7.0011    0.0000 </r>
       <r>    7.0011    0.0000 </r>
       <r>    7.0586    0.0000 </r>
       <r>    7.0586    0.0000 </r>
       <r>    9.2741    0.0000 </r>
       <r>    9.2741    0.0000 </r>
       <r>    9.2741    0.0000 </r>
       <r>    9.2741    0.0000 </r>
      </set>
      <set comment="kpoint 2">
       <r>  -16.0860    1.0000 </r>
       <r>  -16.0860    1.0000 </r>
       <r>   -4.7536    1.0000 </r>
       <r>   -4.7536    1.0000 </r>
       <r>   -3.5335    1.0000 </r>
       <r>   -3.5335    1.0000 </r>
       <r>   -3.2911    1.0000 </r>
       <r>   -3.2911    1.0000 </r>
       <r>    3.1045    0.0000 </r>
       <r>    3.1045    0.0000 </r>
       <r>    6.4991    0.0000 </r>
       <r>    6.4991    0.0000 </r>
       <r>    7.1820    0.0000 </r>
       <r>    7.1820    0.0000 </r>
       <r>    7.2343    0.0000 </r>
       <r>    7.2343    0.0000 </r>
       <r>    8.8102    0.0000 </r>
       <r>    8.8102    0.0000 </r>
       <r>    8.8351    0.0000 </r>
       <r>    8.8351    0.0000 </r>
      </set>
      <set comment="kpoint 3">
       <r>  -15.9878    1.0000 </r>
       <r>  -15.9878    1.0000 </r>
       <r>   -5.1813    1.0000 </r>
       <r>   -5.1813    1.0000 </r>
       <r>   -3.9309    1.0000 </r>
       <r>   -3.9309    1.0000 </r>
       <r>   -3.3857    1.0000 </r>
       <r>   -3.3857    1.0000 </r>
       <r>    3.9094    0.0000 </r>
       <r>    3.9094    0.0000 </r>
       <r>    6.4260    0.0000 </r>
       <r>    6.4260    0.0000 </r>
       <r>    7.0650    0.0000 </r>
       <r>    7.0650    0.0000 </r>
       <r>    7.1305    0.0000 </r>
       <r>    7.1305    0.0000 </r>
       <r>    9.1588    0.0000 </r>
       <r>    9.1588    0.0000 </r>
       <r>    9.2122    0.0000 </r>
       <r>    9.2122    0.0000 </r>
      </set>
      <set comment="kpoint 4">
       <r>  -15.9057    1.0000 </r>
       <r>  -15.9057    1.0000 </r>
       <r>   -5.5682    1.0000 </r>
       <r>   -5.5682    1.0000 </r>
       <r>   -4.1113    1.0000 </r>
       <r>   -4.1113    1.0000 </r>
       <r>   -3.4580    1.0000 </r>
       <r>   -3.4580    1.0000 </r>
       <r>    4.0082    0.0000 </r>
       <r>    4.0082    0.0000 </r>
       <r>    6.7263    0.0000 </r>
       <r>    6.7263    0.0000 </r>
       <r>    6.7860    0.0000 </r>
       <r>    6.7860    0.0000 </r>
       <r>    7.2731    0.0000 </r>
       <r>    7.2731    0.0000 </r>
       <r>    9.7556    0.0000 </r>
       <r>    9.7556    0.0000 </r>
       <r>   10.6437    0.0000 </r>
       <r>   10.6438    0.0000 </r>
      </set>
      <set comment="kpoint 5">
       <r>  -15.9057    1.0000 </r>
       <r>  -15.9057    1.0000 </r>
       <r>   -5.5682    1.0000 </r>
       <r>   -5.5682    1.0000 </r>
       <r>   -4.1113    1.0000 </r>
       <r>   -4.1113    1.0000 </r>
       <r>   -3.4580    1.0000 </r>
       <r>   -3.4580    1.0000 </r>
       <r>    4.0082    0.0000 </r>
       <r>    4.0082    0.0000 </r>
       <r>    6.7263    0.0000 </r>
       <r>    6.7263    0.0000 </r>
       <r>    6.7860    0.0000 </r>
       <r>    6.7860    0.0000 </r>
       <r>    7.2731    0.0000 </r>
       <r>    7.2731    0.0000 </r>
       <r>    9.7556    0.0000 </r>
       <r>    9.7556    0.0000 </r>
       <r>   10.6437    0.0000 </r>
       <r>   10.6440    0.0000 </r>
      </set>
      <set comment="kpoint 6">
       <r>  -15.9878    1.0000 </r>
       <r>  -15.9878    1.0000 </r>
       <r>   -5.1813    1.0000 </r>
       <r>   -5.1813    1.0000 </r>
       <r>   -3.9309    1.0000 </r>
       <r>   -3.9309    1.0000 </r>
       <r>   -3.3857    1.0000 </r>
       <r>   -3.3857    1.0000 </r>
       <r>    3.9094    0.0000 </r>
       <r>    3.9094    0.0000 </r>
       <r>    6.4260    0.0000 </r>
       <r>    6.4260    0.0000 </r>
       <r>    7.0650    0.0000 </r>
       <r>    7.0650    0.0000 </r>
       <r>    7.1305    0.0000 </r>
       <r>    7.1305    0.0000 </r>
       <r>    9.1588    0.0000 </r>
       <r>    9.1588    0.0000 </r>
       <r>    9.2122    0.0000 </r>
       <r>    9.2122    0.0000 </r>
      </set>
      <set comment="kpoint 7">
       <r>  -16.0860    1.0000 </r>
       <r>  -16.0860    1.0000 </r>
       <r>   -4.7536    1.0000 </r>
       <r>   -4.7536    1.0000 </r>
       <r>   -3.5335    1.0000 </r>
       <r>   -3.5335    1.0000 </r>
       <r>   -3.2911    1.0000 </r>
       <r>   -3.2911    1.0000 </r>
       <r>    3.1045    0.0000 </r>
       <r>    3.1045    0.0000 </r>
       <r>    6.4991    0.0000 </r>
       <r>    6.4991    0.0000 </r>
       <r>    7.1820    0.0000 </r>
       <r>    7.1820    0.0000 </r>
       <r>    7.2343    0.0000 </r>
       <r>    7.2343    0.0000 </r>
       <r>    8.8102    0.0000 </r>
       <r>    8.8102    0.0000 </r>
       <r>    8.8351    0.0000 </r>
       <r>    8.8351    0.0000 </r>
      </set>
      <set comment="kpoint 8">
       <r>  -16.0860    1.0000 </r>
       <r>  -16.0860    1.0000 </r>
       <r>   -4.7536    1.0000 </r>
       <r>   -4.7536    1.0000 </r>
       <r>   -3.5335    1.0000 </r>
       <r>   -3.5335    1.0000 </r>
       <r>   -3.2911    1.0000 </r>
       <r>   -3.2911    1.0000 </r>
       <r>    3.1045    0.0000 </r>
       <r>    3.1045    0.0000 </r>
       <r>    6.4991    0.0000 </r>
       <r>    6.4991    0.0000 </r>
       <r>    7.1820    0.0000 </r>
       <r>    7.1820    0.0000 </r>
       <r>    7.2343    0.0000 </r>
       <r>    7.2343    0.0000 </r>
       <r>    8.8102    0.0000 </r>
       <r>    8.8102    0.0000 </r>
       <r>    8.8351    0.0000 </r>
       <r>    8.8351    0.0000 </r>
      </set>
      <set comment="kpoint 9">
       <r>  -16.0720    1.0000 </r>
       <r>  -16.0720    1.0000 </r>
       <r>   -4.7870    1.0000 </r>
       <r>   -4.7870    1.0000 </r>
       <r>   -3.5666    1.0000 </r>
       <r>   -3.5666    1.0000 </r>
       <r>   -3.3807    1.0000 </r>
       <r>   -3.3807    1.0000 </r>
       <r>    3.2960    0.0000 </r>
       <r>    3.2960    0.0000 </r>
       <r>    6.1532    0.0000 </r>
       <r>    6.1532    0.0000 </r>
       <r>    7.4122    0.0000 </r>
       <r>    7.4122    0.0000 </r>
       <r>    7.4853    0.0000 </r>
       <r>    7.4853    0.0000 </r>
       <r>    7.8226    0.0000 </r>
       <r>    7.8226    0.0000 </r>
       <r>    9.5170    0.0000 </r>
       <r>    9.5170    0.0000 </r>
      </set>
      <set comment="kpoint 10">
       <r>  -15.9923    1.0000 </r>
       <r>  -15.9923    1.0000 </r>
       <r>   -5.0826    1.0000 </r>
       <r>   -5.0826    1.0000 </r>
       <r>   -3.9194    1.0000 </r>
       <r>   -3.9194    1.0000 </r>
       <r>   -3.4941    1.0000 </r>
       <r>   -3.4941    1.0000 </r>
       <r>    4.1004    0.0000 </r>
       <r>    4.1004    0.0000 </r>
       <r>    5.7854    0.0000 </r>
       <r>    5.7854    0.0000 </r>
       <r>    6.7486    0.0000 </r>
       <r>    6.7486    0.0000 </r>
       <r>    7.6710    0.0000 </r>
       <r>    7.6710    0.0000 </r>
       <r>    8.4607    0.0000 </r>
       <r>    8.4607    0.0000 </r>
       <r>    9.8329    0.0000 </r>
       <r>    9.8329    0.0000 </r>
      </set>
      <set comment="kpoint 11">
       <r>  -15.9040    1.0000 </r>
       <r>  -15.9040    1.0000 </r>
       <r>   -5.4476    1.0000 </r>
       <r>   -5.4476    1.0000 </r>
       <r>   -4.1744    1.0000 </r>
       <r>   -4.1744    1.0000 </r>
       <r>   -3.6028    1.0000 </r>
       <r>   -3.6028    1.0000 </r>
       <r>    4.4390    0.0000 </r>
       <r>    4.4390    0.0000 </r>
       <r>    5.9683    0.0000 </r>
       <r>    5.9683    0.0000 </r>
       <r>    6.7244    0.0000 </r>
       <r>    6.7244    0.0000 </r>
       <r>    7.3267    0.0000 </r>
       <r>    7.3267    0.0000 </r>
       <r>    9.8228    0.0000 </r>
       <r>    9.8228    0.0000 </r>
       <r>   10.9478    0.0000 </r>
       <r>   10.9478    0.0000 </r>
      </set>
      <set comment="kpoint 12">
       <r>  -15.8760    1.0000 </r>
       <r>  -15.8760    1.0000 </r>
       <r>   -5.5622    1.0000 </r>
       <r>   -5.5622    1.0000 </r>
       <r>   -4.2529    1.0000 </r>
       <r>   -4.2529    1.0000 </r>
       <r>   -3.6267    1.0000 </r>
       <r>   -3.6267    1.0000 </r>
       <r>    4.4966    0.0000 </r>
       <r>    4.4966    0.0000 </r>
       <r>    5.8874    0.0000 </r>
       <r>    5.8874    0.0000 </r>
       <r>    7.0829    0.0000 </r>
       <r>    7.0829    0.0000 </r>
       <r>    7.3683    0.0000 </r>
       <r>    7.3683    0.0000 </r>
       <r>   10.4681    0.0000 </r>
       <r>   10.4681    0.0000 </r>
       <r>   10.5539    0.0000 </r>
       <r>   10.5539    0.0000 </r>
      </set>
      <set comment="kpoint 13">
       <r>  -15.9314    1.0000 </r>
       <r>  -15.9314    1.0000 </r>
       <r>   -5.3347    1.0000 </r>
       <r>   -5.3347    1.0000 </r>
       <r>   -4.1382    1.0000 </r>
       <r>   -4.1382    1.0000 </r>
       <r>   -3.5423    1.0000 </r>
       <r>   -3.5423    1.0000 </r>
       <r>    4.5225    0.0000 </r>
       <r>    4.5225    0.0000 </r>
       <r>    6.2542    0.0000 </r>
       <r>    6.2542    0.0000 </r>
       <r>    6.4327    0.0000 </r>
       <r>    6.4327    0.0000 </r>
       <r>    7.2459    0.0000 </r>
       <r>    7.2459    0.0000 </r>
       <r>    8.7652    0.0000 </r>
       <r>    8.7652    0.0000 </r>
       <r>   10.9983    0.0000 </r>
       <r>   10.9984    0.0000 </r>
      </set>
      <set comment="kpoint 14">
       <r>  -16.0248    1.0000 </r>
       <r>  -16.0248    1.0000 </r>
       <r>   -4.9738    1.0000 </r>
       <r>   -4.9738    1.0000 </r>
       <r>   -3.8204    1.0000 </r>
       <r>   -3.8204    1.0000 </r>
       <r>   -3.4016    1.0000 </r>
       <r>   -3.4016    1.0000 </r>
       <r>    3.8324    0.0000 </r>
       <r>    3.8324    0.0000 </r>
       <r>    6.0841    0.0000 </r>
       <r>    6.0841    0.0000 </r>
       <r>    7.0194    0.0000 </r>
       <r>    7.0194    0.0000 </r>
       <r>    7.5699    0.0000 </r>
       <r>    7.5699    0.0000 </r>
       <r>    7.9152    0.0000 </r>
       <r>    7.9152    0.0000 </r>
       <r>    9.5370    0.0000 </r>
       <r>    9.5370    0.0000 </r>
      </set>
      <set comment="kpoint 15">
       <r>  -15.9878    1.0000 </r>
       <r>  -15.9878    1.0000 </r>
       <r>   -5.1813    1.0000 </r>
       <r>   -5.1813    1.0000 </r>
       <r>   -3.9309    1.0000 </r>
       <r>   -3.9309    1.0000 </r>
       <r>   -3.3857    1.0000 </r>
       <r>   -3.3857    1.0000 </r>
       <r>    3.9094    0.0000 </r>
       <r>    3.9094    0.0000 </r>
       <r>    6.4260    0.0000 </r>
       <r>    6.4260    0.0000 </r>
       <r>    7.0650    0.0000 </r>
       <r>    7.0650    0.0000 </r>
       <r>    7.1305    0.0000 </r>
       <r>    7.1305    0.0000 </r>
       <r>    9.1588    0.0000 </r>
       <r>    9.1589    0.0000 </r>
       <r>    9.2122    0.0000 </r>
       <r>    9.2122    0.0000 </r>
      </set>
      <set comment="kpoint 16">
       <r>  -15.9923    1.0000 </r>
       <r>  -15.9923    1.0000 </r>
       <r>   -5.0826    1.0000 </r>
       <r>   -5.0826    1.0000 </r>
       <r>   -3.9194    1.0000 </r>
       <r>   -3.9194    1.0000 </r>
       <r>   -3.4941    1.0000 </r>
       <r>   -3.4941    1.0000 </r>
       <r>    4.1004    0.0000 </r>
       <r>    4.1004    0.0000 </r>
       <r>    5.7854    0.0000 </r>
       <r>    5.7854    0.0000 </r>
       <r>    6.7486    0.0000 </r>
       <r>    6.7486    0.0000 </r>
       <r>    7.6710    0.0000 </r>
       <r>    7.6710    0.0000 </r>
       <r>    8.4607    0.0000 </r>
       <r>    8.4607    0.0000 </r>
       <r>    9.8329    0.0000 </r>
       <r>    9.8329    0.0000 </r>
      </set>
      <set comment="kpoint 17">
       <r>  -15.9415    1.0000 </r>
       <r>  -15.9415    1.0000 </r>
       <r>   -5.2057    1.0000 </r>
       <r>   -5.2057    1.0000 </r>
       <r>   -4.0704    1.0000 </r>
       <r>   -4.0704    1.0000 </r>
       <r>   -3.6587    1.0000 </r>
       <r>   -3.6587    1.0000 </r>
       <r>    4.2156    0.0000 </r>
       <r>    4.2156    0.0000 </r>
       <r>    5.1032    0.0000 </r>
       <r>    5.1032    0.0000 </r>
       <r>    6.9337    0.0000 </r>
       <r>    6.9337    0.0000 </r>
       <r>    8.5825    0.0000 </r>
       <r>    8.5825    0.0000 </r>
       <r>    8.7041    0.0000 </r>
       <r>    8.7041    0.0000 </r>
       <r>   10.2028    0.0000 </r>
       <r>   10.2028    0.0000 </r>
      </set>
      <set comment="kpoint 18">
       <r>  -15.8721    1.0000 </r>
       <r>  -15.8721    1.0000 </r>
       <r>   -5.4181    1.0000 </r>
       <r>   -5.4181    1.0000 </r>
       <r>   -4.2808    1.0000 </r>
       <r>   -4.2808    1.0000 </r>
       <r>   -3.8067    1.0000 </r>
       <r>   -3.8067    1.0000 </r>
       <r>    4.2727    0.0000 </r>
       <r>    4.2727    0.0000 </r>
       <r>    5.0729    0.0000 </r>
       <r>    5.0729    0.0000 </r>
       <r>    7.0327    0.0000 </r>
       <r>    7.0327    0.0000 </r>
       <r>    8.6811    0.0000 </r>
       <r>    8.6811    0.0000 </r>
       <r>    9.9689    0.0000 </r>
       <r>    9.9689    0.0000 </r>
       <r>   11.2554    0.0000 </r>
       <r>   11.2554    0.0000 </r>
      </set>
      <set comment="kpoint 19">
       <r>  -15.8369    1.0000 </r>
       <r>  -15.8369    1.0000 </r>
       <r>   -5.4891    1.0000 </r>
       <r>   -5.4891    1.0000 </r>
       <r>   -4.4604    1.0000 </r>
       <r>   -4.4604    1.0000 </r>
       <r>   -3.8729    1.0000 </r>
       <r>   -3.8729    1.0000 </r>
       <r>    4.5312    0.0000 </r>
       <r>    4.5312    0.0000 </r>
       <r>    5.6226    0.0000 </r>
       <r>    5.6226    0.0000 </r>
       <r>    7.0327    0.0000 </r>
       <r>    7.0327    0.0000 </r>
       <r>    8.2015    0.0000 </r>
       <r>    8.2015    0.0000 </r>
       <r>    9.9783    0.0000 </r>
       <r>    9.9783    0.0000 </r>
       <r>   10.6312    0.0000 </r>
       <r>   10.6312    0.0000 </r>
      </set>
      <set comment="kpoint 20">
       <r>  -15.8638    1.0000 </r>
       <r>  -15.8638    1.0000 </r>
       <r>   -5.4283    1.0000 </r>
       <r>   -5.4283    1.0000 </r>
       <r>   -4.4333    1.0000 </r>
       <r>   -4.4333    1.0000 </r>
       <r>   -3.7580    1.0000 </r>
       <r>   -3.7580    1.0000 </r>
       <r>    5.1125    0.0000 </r>
       <r>    5.1125    0.0000 </r>
       <r>    5.7802    0.0000 </r>
       <r>    5.7802    0.0000 </r>
       <r>    6.4218    0.0000 </r>
       <r>    6.4218    0.0000 </r>
       <r>    7.7774    0.0000 </r>
       <r>    7.7774    0.0000 </r>
       <r>    9.1432    0.0000 </r>
       <r>    9.1432    0.0000 </r>
       <r>   10.5255    0.0000 </r>
       <r>   10.5255    0.0000 </r>
      </set>
      <set comment="kpoint 21">
       <r>  -15.9314    1.0000 </r>
       <r>  -15.9314    1.0000 </r>
       <r>   -5.3347    1.0000 </r>
       <r>   -5.3347    1.0000 </r>
       <r>   -4.1382    1.0000 </r>
       <r>   -4.1382    1.0000 </r>
       <r>   -3.5423    1.0000 </r>
       <r>   -3.5423    1.0000 </r>
       <r>    4.5225    0.0000 </r>
       <r>    4.5225    0.0000 </r>
       <r>    6.2542    0.0000 </r>
       <r>    6.2542    0.0000 </r>
       <r>    6.4327    0.0000 </r>
       <r>    6.4327    0.0000 </r>
       <r>    7.2459    0.0000 </r>
       <r>    7.2459    0.0000 </r>
       <r>    8.7652    0.0000 </r>
       <r>    8.7652    0.0000 </r>
       <r>   10.9984    0.0000 </r>
       <r>   10.9984    0.0000 </r>
      </set>
      <set comment="kpoint 22">
       <r>  -15.9057    1.0000 </r>
       <r>  -15.9057    1.0000 </r>
       <r>   -5.5682    1.0000 </r>
       <r>   -5.5682    1.0000 </r>
       <r>   -4.1113    1.0000 </r>
       <r>   -4.1113    1.0000 </r>
       <r>   -3.4580    1.0000 </r>
       <r>   -3.4580    1.0000 </r>
       <r>    4.0082    0.0000 </r>
       <r>    4.0082    0.0000 </r>
       <r>    6.7263    0.0000 </r>
       <r>    6.7263    0.0000 </r>
       <r>    6.7860    0.0000 </r>
       <r>    6.7860    0.0000 </r>
       <r>    7.2731    0.0000 </r>
       <r>    7.2731    0.0000 </r>
       <r>    9.7556    0.0000 </r>
       <r>    9.7556    0.0000 </r>
       <r>   10.6437    0.0000 </r>
       <r>   10.6437    0.0000 </r>
      </set>
      <set comment="kpoint 23">
       <r>  -15.9040    1.0000 </r>
       <r>  -15.9040    1.0000 </r>
       <r>   -5.4476    1.0000 </r>
       <r>   -5.4476    1.0000 </r>
       <r>   -4.1744    1.0000 </r>
       <r>   -4.1744    1.0000 </r>
       <r>   -3.6028    1.0000 </r>
       <r>   -3.6028    1.0000 </r>
       <r>    4.4390    0.0000 </r>
       <r>    4.4390    0.0000 </r>
       <r>    5.9683    0.0000 </r>
       <r>    5.9683    0.0000 </r>
       <r>    6.7244    0.0000 </r>
       <r>    6.7244    0.0000 </r>
       <r>    7.3267    0.0000 </r>
       <r>    7.3267    0.0000 </r>
       <r>    9.8228    0.0000 </r>
       <r>    9.8228    0.0000 </r>
       <r>   10.9478    0.0000 </r>
       <r>   10.9479    0.0000 </r>
      </set>
      <set comment="kpoint 24">
       <r>  -15.8721    1.0000 </r>
       <r>  -15.8721    1.0000 </r>
       <r>   -5.4181    1.0000 </r>
       <r>   -5.4181    1.0000 </r>
       <r>   -4.2808    1.0000 </r>
       <r>   -4.2808    1.0000 </r>
       <r>   -3.8067    1.0000 </r>
       <r>   -3.8067    1.0000 </r>
       <r>    4.2727    0.0000 </r>
       <r>    4.2727    0.0000 </r>
       <r>    5.0729    0.0000 </r>
       <r>    5.0729    0.0000 </r>
       <r>    7.0327    0.0000 </r>
       <r>    7.0327    0.0000 </r>
       <r>    8.6811    0.0000 </r>
       <r>    8.6811    0.0000 </r>
       <r>    9.9689    0.0000 </r>
       <r>    9.9689    0.0000 </r>
       <r>   11.2554    0.0000 </r>
       <r>   11.2554    0.0000 </r>
      </set>
      <set comment="kpoint 25">
       <r>  -15.8329    1.0000 </r>
       <r>  -15.8329    1.0000 </r>
       <r>   -5.5333    1.0000 </r>
       <r>   -5.5333    1.0000 </r>
       <r>   -4.3595    1.0000 </r>
       <r>   -4.3595    1.0000 </r>
       <r>   -3.8635    1.0000 </r>
       <r>   -3.8635    1.0000 </r>
       <r>    3.7435    0.0000 </r>
       <r>    3.7435    0.0000 </r>
       <r>    4.5371    0.0000 </r>
       <r>    4.5371    0.0000 </r>
       <r>    8.4314    0.0000 </r>
       <r>    8.4314    0.0000 </r>
       <r>   10.3153    0.0000 </r>
       <r>   10.3153    0.0000 </r>
       <r>   10.4897    0.0000 </r>
       <r>   10.4897    0.0000 </r>
       <r>   11.0592    0.0000 </r>
       <r>   11.0592    0.0000 </r>
      </set>
      <set comment="kpoint 26">
       <r>  -15.8172    1.0000 </r>
       <r>  -15.8172    1.0000 </r>
       <r>   -5.5425    1.0000 </r>
       <r>   -5.5425    1.0000 </r>
       <r>   -4.4328    1.0000 </r>
       <r>   -4.4328    1.0000 </r>
       <r>   -3.9434    1.0000 </r>
       <r>   -3.9434    1.0000 </r>
       <r>    3.9116    0.0000 </r>
       <r>    3.9116    0.0000 </r>
       <r>    4.8147    0.0000 </r>
       <r>    4.8147    0.0000 </r>
       <r>    8.2179    0.0000 </r>
       <r>    8.2179    0.0000 </r>
       <r>    9.6683    0.0000 </r>
       <r>    9.6683    0.0000 </r>
       <r>   10.4377    0.0000 </r>
       <r>   10.4378    0.0000 </r>
       <r>   11.3099    0.0000 </r>
       <r>   11.3099    0.0000 </r>
      </set>
      <set comment="kpoint 27">
       <r>  -15.8369    1.0000 </r>
       <r>  -15.8369    1.0000 </r>
       <r>   -5.4891    1.0000 </r>
       <r>   -5.4891    1.0000 </r>
       <r>   -4.4604    1.0000 </r>
       <r>   -4.4604    1.0000 </r>
       <r>   -3.8729    1.0000 </r>
       <r>   -3.8729    1.0000 </r>
       <r>    4.5312    0.0000 </r>
       <r>    4.5312    0.0000 </r>
       <r>    5.6226    0.0000 </r>
       <r>    5.6226    0.0000 </r>
       <r>    7.0327    0.0000 </r>
       <r>    7.0327    0.0000 </r>
       <r>    8.2015    0.0000 </r>
       <r>    8.2015    0.0000 </r>
       <r>    9.9783    0.0000 </r>
       <r>    9.9783    0.0000 </r>
       <r>   10.6312    0.0000 </r>
       <r>   10.6312    0.0000 </r>
      </set>
      <set comment="kpoint 28">
       <r>  -15.8760    1.0000 </r>
       <r>  -15.8760    1.0000 </r>
       <r>   -5.5622    1.0000 </r>
       <r>   -5.5622    1.0000 </r>
       <r>   -4.2529    1.0000 </r>
       <r>   -4.2529    1.0000 </r>
       <r>   -3.6267    1.0000 </r>
       <r>   -3.6267    1.0000 </r>
       <r>    4.4966    0.0000 </r>
       <r>    4.4966    0.0000 </r>
       <r>    5.8874    0.0000 </r>
       <r>    5.8874    0.0000 </r>
       <r>    7.0829    0.0000 </r>
       <r>    7.0829    0.0000 </r>
       <r>    7.3683    0.0000 </r>
       <r>    7.3683    0.0000 </r>
       <r>   10.4681    0.0000 </r>
       <r>   10.4681    0.0000 </r>
       <r>   10.5539    0.0000 </r>
       <r>   10.5539    0.0000 </r>
      </set>
      <set comment="kpoint 29">
       <r>  -15.9057    1.0000 </r>
       <r>  -15.9057    1.0000 </r>
       <r>   -5.5682    1.0000 </r>
       <r>   -5.5682    1.0000 </r>
       <r>   -4.1113    1.0000 </r>
       <r>   -4.1113    1.0000 </r>
       <r>   -3.4580    1.0000 </r>
       <r>   -3.4580    1.0000 </r>
       <r>    4.0082    0.0000 </r>
       <r>    4.0082    0.0000 </r>
       <r>    6.7263    0.0000 </r>
       <r>    6.7263    0.0000 </r>
       <r>    6.7860    0.0000 </r>
       <r>    6.7860    0.0000 </r>
       <r>    7.2731    0.0000 </r>
       <r>    7.2731    0.0000 </r>
       <r>    9.7556    0.0000 </r>
       <r>    9.7556    0.0000 </r>
       <r>   10.6437    0.0000 </r>
       <r>   10.6437    0.0000 </r>
      </set>
      <set comment="kpoint 30">
       <r>  -15.8760    1.0000 </r>
       <r>  -15.8760    1.0000 </r>
       <r>   -5.5622    1.0000 </r>
       <r>   -5.5622    1.0000 </r>
       <r>   -4.2529    1.0000 </r>
       <r>   -4.2529    1.0000 </r>
       <r>   -3.6267    1.0000 </r>
       <r>   -3.6267    1.0000 </r>
       <r>    4.4966    0.0000 </r>
       <r>    4.4966    0.0000 </r>
       <r>    5.8874    0.0000 </r>
       <r>    5.8874    0.0000 </r>
       <r>    7.0829    0.0000 </r>
       <r>    7.0829    0.0000 </r>
       <r>    7.3683    0.0000 </r>
       <r>    7.3683    0.0000 </r>
       <r>   10.4681    0.0000 </r>
       <r>   10.4681    0.0000 </r>
       <r>   10.5539    0.0000 </r>
       <r>   10.5539    0.0000 </r>
      </set>
      <set comment="kpoint 31">
       <r>  -15.8369    1.0000 </r>
       <r>  -15.8369    1.0000 </r>
       <r>   -5.4891    1.0000 </r>
       <r>   -5.4891    1.0000 </r>
       <r>   -4.4604    1.0000 </r>
       <r>   -4.4604    1.0000 </r>
       <r>   -3.8729    1.0000 </r>
       <r>   -3.8729    1.0000 </r>
       <r>    4.5312    0.0000 </r>
       <r>    4.5312    0.0000 </r>
       <r>    5.6226    0.0000 </r>
       <r>    5.6226    0.0000 </r>
       <r>    7.0327    0.0000 </r>
       <r>    7.0327    0.0000 </r>
       <r>    8.2015    0.0000 </r>
       <r>    8.2015    0.0000 </r>
       <r>    9.9783    0.0000 </r>
       <r>    9.9783    0.0000 </r>
       <r>   10.6312    0.0000 </r>
       <r>   10.6312    0.0000 </r>
      </set>
      <set comment="kpoint 32">
       <r>  -15.8172    1.0000 </r>
       <r>  -15.8172    1.0000 </r>
       <r>   -5.5425    1.0000 </r>
       <r>   -5.5425    1.0000 </r>
       <r>   -4.4328    1.0000 </r>
       <r>   -4.4328    1.0000 </r>
       <r>   -3.9434    1.0000 </r>
       <r>   -3.9434    1.0000 </r>
       <r>    3.9116    0.0000 </r>
       <r>    3.9116    0.0000 </r>
       <r>    4.8147    0.0000 </r>
       <r>    4.8147    0.0000 </r>
       <r>    8.2179    0.0000 </r>
       <r>    8.2179    0.0000 </r>
       <r>    9.6683    0.0000 </r>
       <r>    9.6683    0.0000 </r>
       <r>   10.4377    0.0000 </r>
       <r>   10.4378    0.0000 </r>
       <r>   11.3099    0.0000 </r>
       <r>   11.3099    0.0000 </r>
      </set>
      <set comment="kpoint 33">
       <r>  -15.8329    1.0000 </r>
       <r>  -15.8329    1.0000 </r>
       <r>   -5.5333    1.0000 </r>
       <r>   -5.5333    1.0000 </r>
       <r>   -4.3595    1.0000 </r>
       <r>   -4.3595    1.0000 </r>
       <r>   -3.8635    1.0000 </r>
       <r>   -3.8635    1.0000 </r>
[...]
       <r>     4.2132     0.0000     0.0000 </r>
       <r>     4.3152     0.0000     0.0000 </r>
       <r>     4.4172     0.0000     0.0000 </r>
       <r>     4.5193     0.0000     0.0000 </r>
       <r>     4.6213     0.0000     0.0000 </r>
       <r>     4.7233     0.0000     0.0000 </r>
       <r>     4.8254     0.0000     0.0000 </r>
       <r>     4.9274     0.0000     0.0000 </r>
       <r>     5.0294     0.0000     0.0000 </r>
       <r>     5.1314     0.0000     0.0000 </r>
       <r>     5.2335     0.0000     0.0000 </r>
       <r>     5.3355     0.0000     0.0000 </r>
       <r>     5.4375     0.0000     0.0000 </r>
       <r>     5.5396     0.0000     0.0000 </r>
       <r>     5.6416     0.0000     0.0000 </r>
       <r>     5.7436     0.0000     0.0000 </r>
       <r>     5.8457     0.0000     0.0000 </r>
       <r>     5.9477     0.0000     0.0000 </r>
       <r>     6.0497     0.0000     0.0000 </r>
       <r>     6.1517     0.0000     0.0000 </r>
       <r>     6.2538     0.0000     0.0000 </r>
       <r>     6.3558     0.0000     0.0000 </r>
       <r>     6.4578     0.0000     0.0000 </r>
       <r>     6.5599     0.0000     0.0000 </r>
       <r>     6.6619     0.0000     0.0000 </r>
       <r>     6.7639     0.0000     0.0000 </r>
       <r>     6.8659     0.0000     0.0000 </r>
       <r>     6.9680     0.0000     0.0000 </r>
       <r>     7.0700     0.0000     0.0000 </r>
       <r>     7.1720     0.0000     0.0000 </r>
       <r>     7.2741     0.0000     0.0000 </r>
       <r>     7.3761     0.0000     0.0000 </r>
       <r>     7.4781     0.0000     0.0000 </r>
       <r>     7.5802     0.0000     0.0000 </r>
       <r>     7.6822     0.0000     0.0000 </r>
       <r>     7.7842     0.0000     0.0000 </r>
       <r>     7.8862     0.0000     0.0000 </r>
       <r>     7.9883     0.0000     0.0000 </r>
       <r>     8.0903     0.0000     0.0000 </r>
       <r>     8.1923     0.0000     0.0000 </r>
       <r>     8.2944     0.0000     0.0000 </r>
       <r>     8.3964     0.0000     0.0000 </r>
       <r>     8.4984     0.0000     0.0000 </r>
       <r>     8.6004     0.0000     0.0000 </r>
       <r>     8.7025     0.0000     0.0000 </r>
       <r>     8.8045     0.0000     0.0000 </r>
       <r>     8.9065     0.0000     0.0000 </r>
       <r>     9.0086     0.0000     0.0000 </r>
       <r>     9.1106     0.0000     0.0000 </r>
       <r>     9.2126     0.0000     0.0000 </r>
       <r>     9.3147     0.0000     0.0000 </r>
       <r>     9.4167     0.0000     0.0000 </r>
       <r>     9.5187     0.0000     0.0000 </r>
       <r>     9.6207     0.0000     0.0000 </r>
       <r>     9.7228     0.0000     0.0000 </r>
       <r>     9.8248     0.0000     0.0000 </r>
       <r>     9.9268     0.0000     0.0000 </r>
       <r>    10.0289     0.0000     0.0000 </r>
       <r>    10.1309     0.0000     0.0000 </r>
       <r>    10.2329     0.0000     0.0000 </r>
       <r>    10.3350     0.0000     0.0000 </r>
       <r>    10.4370     0.0000     0.0000 </r>
       <r>    10.5390     0.0000     0.0000 </r>
       <r>    10.6410     0.0000     0.0000 </r>
       <r>    10.7431     0.0000     0.0000 </r>
       <r>    10.8451     0.0000     0.0000 </r>
       <r>    10.9471     0.0000     0.0000 </r>
       <r>    11.0492     0.0000     0.0000 </r>
       <r>    11.1512     0.0000     0.0000 </r>
       <r>    11.2532     0.0000     0.0000 </r>
       <r>    11.3552     0.0000     0.0000 </r>
       <r>    11.4573     0.0000     0.0000 </r>
       <r>    11.5593     0.0000     0.0000 </r>
       <r>    11.6613     0.0000     0.0000 </r>
       <r>    11.7634     0.0000     0.0000 </r>
       <r>    11.8654     0.0000     0.0000 </r>
       <r>    11.9674     0.0000     0.0000 </r>
       <r>    12.0695     0.0000     0.0000 </r>
       <r>    12.1715     0.0000     0.0000 </r>
       <r>    12.2735     0.0000     0.0000 </r>
       <r>    12.3755     0.0000     0.0000 </r>
       <r>    12.4776     0.0000     0.0000 </r>
       <r>    12.5796     0.0000     0.0000 </r>
       <r>    12.6816     0.0000     0.0000 </r>
       <r>    12.7837     0.0000     0.0000 </r>
       <r>    12.8857     0.0000     0.0000 </r>
       <r>    12.9877     0.0000     0.0000 </r>
       <r>    13.0897     0.0000     0.0000 </r>
      </set>
      <set comment="spin 4">
       <r>   -17.5191     0.0000     0.0000 </r>
       <r>   -17.4171     0.0000     0.0000 </r>
       <r>   -17.3151     0.0000     0.0000 </r>
       <r>   -17.2130     0.0000     0.0000 </r>
       <r>   -17.1110     0.0000     0.0000 </r>
       <r>   -17.0090     0.0000     0.0000 </r>
       <r>   -16.9069     0.0000     0.0000 </r>
       <r>   -16.8049     0.0000     0.0000 </r>
       <r>   -16.7029     0.0000     0.0000 </r>
       <r>   -16.6009     0.0000     0.0000 </r>
       <r>   -16.4988     0.0000     0.0000 </r>
       <r>   -16.3968     0.0000     0.0000 </r>
       <r>   -16.2948     0.0000     0.0000 </r>
       <r>   -16.1927     0.0000     0.0000 </r>
       <r>   -16.0907     0.0000     0.0000 </r>
       <r>   -15.9887     0.0000     0.0000 </r>
       <r>   -15.8866     0.0000     0.0000 </r>
       <r>   -15.7846     0.0000     0.0000 </r>
       <r>   -15.6826     0.0000     0.0000 </r>
       <r>   -15.5806     0.0000     0.0000 </r>
       <r>   -15.4785     0.0000     0.0000 </r>
       <r>   -15.3765     0.0000     0.0000 </r>
       <r>   -15.2745     0.0000     0.0000 </r>
       <r>   -15.1724     0.0000     0.0000 </r>
       <r>   -15.0704     0.0000     0.0000 </r>
       <r>   -14.9684     0.0000     0.0000 </r>
       <r>   -14.8664     0.0000     0.0000 </r>
       <r>   -14.7643     0.0000     0.0000 </r>
       <r>   -14.6623     0.0000     0.0000 </r>
       <r>   -14.5603     0.0000     0.0000 </r>
       <r>   -14.4582     0.0000     0.0000 </r>
       <r>   -14.3562     0.0000     0.0000 </r>
       <r>   -14.2542     0.0000     0.0000 </r>
       <r>   -14.1521     0.0000     0.0000 </r>
       <r>   -14.0501     0.0000     0.0000 </r>
       <r>   -13.9481     0.0000     0.0000 </r>
       <r>   -13.8461     0.0000     0.0000 </r>
       <r>   -13.7440     0.0000     0.0000 </r>
       <r>   -13.6420     0.0000     0.0000 </r>
       <r>   -13.5400     0.0000     0.0000 </r>
       <r>   -13.4379     0.0000     0.0000 </r>
       <r>   -13.3359     0.0000     0.0000 </r>
       <r>   -13.2339     0.0000     0.0000 </r>
       <r>   -13.1318     0.0000     0.0000 </r>
       <r>   -13.0298     0.0000     0.0000 </r>
       <r>   -12.9278     0.0000     0.0000 </r>
       <r>   -12.8258     0.0000     0.0000 </r>
       <r>   -12.7237     0.0000     0.0000 </r>
       <r>   -12.6217     0.0000     0.0000 </r>
       <r>   -12.5197     0.0000     0.0000 </r>
       <r>   -12.4176     0.0000     0.0000 </r>
       <r>   -12.3156     0.0000     0.0000 </r>
       <r>   -12.2136     0.0000     0.0000 </r>
       <r>   -12.1116     0.0000     0.0000 </r>
       <r>   -12.0095     0.0000     0.0000 </r>
       <r>   -11.9075     0.0000     0.0000 </r>
       <r>   -11.8055     0.0000     0.0000 </r>
       <r>   -11.7034     0.0000     0.0000 </r>
       <r>   -11.6014     0.0000     0.0000 </r>
       <r>   -11.4994     0.0000     0.0000 </r>
       <r>   -11.3973     0.0000     0.0000 </r>
       <r>   -11.2953     0.0000     0.0000 </r>
       <r>   -11.1933     0.0000     0.0000 </r>
       <r>   -11.0913     0.0000     0.0000 </r>
       <r>   -10.9892     0.0000     0.0000 </r>
       <r>   -10.8872     0.0000     0.0000 </r>
       <r>   -10.7852     0.0000     0.0000 </r>
       <r>   -10.6831     0.0000     0.0000 </r>
       <r>   -10.5811     0.0000     0.0000 </r>
       <r>   -10.4791     0.0000     0.0000 </r>
       <r>   -10.3771     0.0000     0.0000 </r>
       <r>   -10.2750     0.0000     0.0000 </r>
       <r>   -10.1730     0.0000     0.0000 </r>
       <r>   -10.0710     0.0000     0.0000 </r>
       <r>    -9.9689     0.0000     0.0000 </r>
       <r>    -9.8669     0.0000     0.0000 </r>
       <r>    -9.7649     0.0000     0.0000 </r>
       <r>    -9.6628     0.0000     0.0000 </r>
       <r>    -9.5608     0.0000     0.0000 </r>
       <r>    -9.4588     0.0000     0.0000 </r>
       <r>    -9.3568     0.0000     0.0000 </r>
       <r>    -9.2547     0.0000     0.0000 </r>
       <r>    -9.1527     0.0000     0.0000 </r>
       <r>    -9.0507     0.0000     0.0000 </r>
       <r>    -8.9486     0.0000     0.0000 </r>
       <r>    -8.8466     0.0000     0.0000 </r>
       <r>    -8.7446     0.0000     0.0000 </r>
       <r>    -8.6425     0.0000     0.0000 </r>
       <r>    -8.5405     0.0000     0.0000 </r>
       <r>    -8.4385     0.0000     0.0000 </r>
       <r>    -8.3365     0.0000     0.0000 </r>
       <r>    -8.2344     0.0000     0.0000 </r>
       <r>    -8.1324     0.0000     0.0000 </r>
       <r>    -8.0304     0.0000     0.0000 </r>
       <r>    -7.9283     0.0000     0.0000 </r>
       <r>    -7.8263     0.0000     0.0000 </r>
       <r>    -7.7243     0.0000     0.0000 </r>
       <r>    -7.6223     0.0000     0.0000 </r>
       <r>    -7.5202     0.0000     0.0000 </r>
       <r>    -7.4182     0.0000     0.0000 </r>
       <r>    -7.3162     0.0000     0.0000 </r>
       <r>    -7.2141     0.0000     0.0000 </r>
       <r>    -7.1121     0.0000     0.0000 </r>
       <r>    -7.0101     0.0000     0.0000 </r>
       <r>    -6.9080     0.0000     0.0000 </r>
       <r>    -6.8060     0.0000     0.0000 </r>
       <r>    -6.7040     0.0000     0.0000 </r>
       <r>    -6.6020     0.0000     0.0000 </r>
       <r>    -6.4999     0.0000     0.0000 </r>
       <r>    -6.3979     0.0000     0.0000 </r>
       <r>    -6.2959     0.0000     0.0000 </r>
       <r>    -6.1938     0.0000     0.0000 </r>
       <r>    -6.0918     0.0000     0.0000 </r>
       <r>    -5.9898     0.0000     0.0000 </r>
       <r>    -5.8877     0.0000     0.0000 </r>
       <r>    -5.7857     0.0000     0.0000 </r>
       <r>    -5.6837     0.0000     0.0000 </r>
       <r>    -5.5817     0.0000     0.0000 </r>
       <r>    -5.4796     0.0000     0.0000 </r>
       <r>    -5.3776     0.0000     0.0000 </r>
       <r>    -5.2756     0.0000     0.0000 </r>
       <r>    -5.1735     0.0000     0.0000 </r>
       <r>    -5.0715     0.0000     0.0000 </r>
       <r>    -4.9695     0.0000     0.0000 </r>
       <r>    -4.8675     0.0000     0.0000 </r>
       <r>    -4.7654     0.0000     0.0000 </r>
       <r>    -4.6634     0.0000     0.0000 </r>
       <r>    -4.5614     0.0000     0.0000 </r>
       <r>    -4.4593     0.0000     0.0000 </r>
       <r>    -4.3573     0.0000     0.0000 </r>
       <r>    -4.2553     0.0000     0.0000 </r>
       <r>    -4.1532     0.0000     0.0000 </r>
       <r>    -4.0512     0.0000     0.0000 </r>
       <r>    -3.9492     0.0000     0.0000 </r>
       <r>    -3.8472     0.0000     0.0000 </r>
       <r>    -3.7451     0.0000     0.0000 </r>
       <r>    -3.6431     0.0000     0.0000 </r>
       <r>    -3.5411     0.0000     0.0000 </r>
       <r>    -3.4390     0.0000     0.0000 </r>
       <r>    -3.3370     0.0000     0.0000 </r>
       <r>    -3.2350     0.0000     0.0000 </r>
       <r>    -3.1330     0.0000     0.0000 </r>
       <r>    -3.0309     0.0000     0.0000 </r>
       <r>    -2.9289     0.0000     0.0000 </r>
       <r>    -2.8269     0.0000     0.0000 </r>
       <r>    -2.7248     0.0000     0.0000 </r>
       <r>    -2.6228     0.0000     0.0000 </r>
       <r>    -2.5208     0.0000     0.0000 </r>
       <r>    -2.4187     0.0000     0.0000 </r>
       <r>    -2.3167     0.0000     0.0000 </r>
       <r>    -2.2147     0.0000     0.0000 </r>
       <r>    -2.1127     0.0000     0.0000 </r>
       <r>    -2.0106     0.0000     0.0000 </r>
       <r>    -1.9086     0.0000     0.0000 </r>
       <r>    -1.8066     0.0000     0.0000 </r>
       <r>    -1.7045     0.0000     0.0000 </r>
       <r>    -1.6025     0.0000     0.0000 </r>
       <r>    -1.5005     0.0000     0.0000 </r>
       <r>    -1.3984     0.0000     0.0000 </r>
       <r>    -1.2964     0.0000     0.0000 </r>
       <r>    -1.1944     0.0000     0.0000 </r>
       <r>    -1.0924     0.0000     0.0000 </r>
       <r>    -0.9903     0.0000     0.0000 </r>
       <r>    -0.8883     0.0000     0.0000 </r>
       <r>    -0.7863     0.0000     0.0000 </r>
       <r>    -0.6842     0.0000     0.0000 </r>
       <r>    -0.5822     0.0000     0.0000 </r>
       <r>    -0.4802     0.0000     0.0000 </r>
       <r>    -0.3782     0.0000     0.0000 </r>
       <r>    -0.2761     0.0000     0.0000 </r>
       <r>    -0.1741     0.0000     0.0000 </r>
       <r>    -0.0721     0.0000     0.0000 </r>
       <r>     0.0300     0.0000     0.0000 </r>
       <r>     0.1320     0.0000     0.0000 </r>
       <r>     0.2340     0.0000     0.0000 </r>
       <r>     0.3361     0.0000     0.0000 </r>
       <r>     0.4381     0.0000     0.0000 </r>
       <r>     0.5401     0.0000     0.0000 </r>
       <r>     0.6421     0.0000     0.0000 </r>
       <r>     0.7442     0.0000     0.0000 </r>
       <r>     0.8462     0.0000     0.0000 </r>
       <r>     0.9482     0.0000     0.0000 </r>
       <r>     1.0503     0.0000     0.0000 </r>
       <r>     1.1523     0.0000     0.0000 </r>
       <r>     1.2543     0.0000     0.0000 </r>
       <r>     1.3563     0.0000     0.0000 </r>
       <r>     1.4584     0.0000     0.0000 </r>
       <r>     1.5604     0.0000     0.0000 </r>
       <r>     1.6624     0.0000     0.0000 </r>
       <r>     1.7645     0.0000     0.0000 </r>
       <r>     1.8665     0.0000     0.0000 </r>
       <r>     1.9685     0.0000     0.0000 </r>
       <r>     2.0706     0.0000     0.0000 </r>
       <r>     2.1726     0.0000     0.0000 </r>
       <r>     2.2746     0.0000     0.0000 </r>
       <r>     2.3766     0.0000     0.0000 </r>
       <r>     2.4787     0.0000     0.0000 </r>
       <r>     2.5807     0.0000     0.0000 </r>
       <r>     2.6827     0.0000     0.0000 </r>
       <r>     2.7848     0.0000     0.0000 </r>
       <r>     2.8868     0.0000     0.0000 </r>
       <r>     2.9888     0.0000     0.0000 </r>
       <r>     3.0909     0.0000     0.0000 </r>
       <r>     3.1929     0.0000     0.0000 </r>
       <r>     3.2949     0.0000     0.0000 </r>
       <r>     3.3969     0.0000     0.0000 </r>
       <r>     3.4990     0.0000     0.0000 </r>
       <r>     3.6010     0.0000     0.0000 </r>
       <r>     3.7030     0.0000     0.0000 </r>
       <r>     3.8051     0.0000     0.0000 </r>
       <r>     3.9071     0.0000     0.0000 </r>
       <r>     4.0091     0.0000     0.0000 </r>
       <r>     4.1111     0.0000     0.0000 </r>
       <r>     4.2132     0.0000     0.0000 </r>
       <r>     4.3152     0.0000     0.0000 </r>
       <r>     4.4172     0.0000     0.0000 </r>
       <r>     4.5193     0.0000     0.0000 </r>
       <r>     4.6213     0.0000     0.0000 </r>
       <r>     4.7233     0.0000     0.0000 </r>
       <r>     4.8254     0.0000     0.0000 </r>
       <r>     4.9274     0.0000     0.0000 </r>
       <r>     5.0294     0.0000     0.0000 </r>
       <r>     5.1314     0.0000     0.0000 </r>
       <r>     5.2335     0.0000     0.0000 </r>
       <r>     5.3355     0.0000     0.0000 </r>
       <r>     5.4375     0.0000     0.0000 </r>
       <r>     5.5396     0.0000     0.0000 </r>
       <r>     5.6416     0.0000     0.0000 </r>
       <r>     5.7436     0.0000     0.0000 </r>
       <r>     5.8457     0.0000     0.0000 </r>
       <r>     5.9477     0.0000     0.0000 </r>
       <r>     6.0497     0.0000     0.0000 </r>
       <r>     6.1517     0.0000     0.0000 </r>
       <r>     6.2538     0.0000     0.0000 </r>
       <r>     6.3558     0.0000     0.0000 </r>
       <r>     6.4578     0.0000     0.0000 </r>
       <r>     6.5599     0.0000     0.0000 </r>
       <r>     6.6619     0.0000     0.0000 </r>
       <r>     6.7639     0.0000     0.0000 </r>
       <r>     6.8659     0.0000     0.0000 </r>
       <r>     6.9680     0.0000     0.0000 </r>
       <r>     7.0700     0.0000     0.0000 </r>
       <r>     7.1720     0.0000     0.0000 </r>
       <r>     7.2741     0.0000     0.0000 </r>
       <r>     7.3761     0.0000     0.0000 </r>
       <r>     7.4781     0.0000     0.0000 </r>
       <r>     7.5802     0.0000     0.0000 </r>
       <r>     7.6822     0.0000     0.0000 </r>
       <r>     7.7842     0.0000     0.0000 </r>
       <r>     7.8862     0.0000     0.0000 </r>
       <r>     7.9883     0.0000     0.0000 </r>
       <r>     8.0903     0.0000     0.0000 </r>
       <r>     8.1923     0.0000     0.0000 </r>
       <r>     8.2944     0.0000     0.0000 </r>
       <r>     8.3964     0.0000     0.0000 </r>
       <r>     8.4984     0.0000     0.0000 </r>
       <r>     8.6004     0.0000     0.0000 </r>
       <r>     8.7025     0.0000     0.0000 </r>
       <r>     8.8045     0.0000     0.0000 </r>
       <r>     8.9065     0.0000     0.0000 </r>
       <r>     9.0086     0.0000     0.0000 </r>
       <r>     9.1106     0.0000     0.0000 </r>
       <r>     9.2126     0.0000     0.0000 </r>
       <r>     9.3147     0.0000     0.0000 </r>
       <r>     9.4167     0.0000     0.0000 </r>
       <r>     9.5187     0.0000     0.0000 </r>
       <r>     9.6207     0.0000     0.0000 </r>
       <r>     9.7228     0.0000     0.0000 </r>
       <r>     9.8248     0.0000     0.0000 </r>
       <r>     9.9268     0.0000     0.0000 </r>
       <r>    10.0289     0.0000     0.0000 </r>
       <r>    10.1309     0.0000     0.0000 </r>
       <r>    10.2329     0.0000     0.0000 </r>
       <r>    10.3350     0.0000     0.0000 </r>
       <r>    10.4370     0.0000     0.0000 </r>
       <r>    10.5390     0.0000     0.0000 </r>
       <r>    10.6410     0.0000     0.0000 </r>
       <r>    10.7431     0.0000     0.0000 </r>
       <r>    10.8451     0.0000     0.0000 </r>
       <r>    10.9471     0.0000     0.0000 </r>
       <r>    11.0492     0.0000     0.0000 </r>
       <r>    11.1512     0.0000     0.0000 </r>
       <r>    11.2532     0.0000     0.0000 </r>
       <r>    11.3552     0.0000     0.0000 </r>
       <r>    11.4573     0.0000     0.0000 </r>
       <r>    11.5593     0.0000     0.0000 </r>
       <r>    11.6613     0.0000     0.0000 </r>
       <r>    11.7634     0.0000     0.0000 </r>
       <r>    11.8654     0.0000     0.0000 </r>
       <r>    11.9674     0.0000     0.0000 </r>
       <r>    12.0695     0.0000     0.0000 </r>
       <r>    12.1715     0.0000     0.0000 </r>
       <r>    12.2735     0.0000     0.0000 </r>
       <r>    12.3755     0.0000     0.0000 </r>
       <r>    12.4776     0.0000     0.0000 </r>
       <r>    12.5796     0.0000     0.0000 </r>
       <r>    12.6816     0.0000     0.0000 </r>
       <r>    12.7837     0.0000     0.0000 </r>
       <r>    12.8857     0.0000     0.0000 </r>
       <r>    12.9877     0.0000     0.0000 </r>
       <r>    13.0897     0.0000     0.0000 </r>
      </set>
     </set>
    </array>
   </total>
  </dos>
 </calculation>
 <structure name="finalpos" >
  <crystal>
   <varray name="basis" >
    <v>       4.33599578       0.00000000       0.00000000 </v>
    <v>       2.16799789       3.75508250      -0.00000000 </v>
    <v>       2.16799789       1.25169417       3.54032573 </v>
   </varray>
   <i name="volume">     57.64366099 </i>
   <varray name="rec_basis" >
    <v>       0.23062753      -0.13315287      -0.09415330 </v>
    <v>       0.00000000       0.26630573      -0.09415330 </v>
    <v>      -0.00000000       0.00000000       0.28245989 </v>
   </varray>
  </crystal>
  <varray name="positions" >
   <v>       0.00000000       0.00000000       0.00000000 </v>
  </varray>
  <varray name="velocities" >
   <v>       0.00000000       0.00000000       0.00000000 </v>
  </varray>
 </structure>
</modeling>
