 vasp.5.4.4.18Apr17-6-g9f103f2a35 (build Jul 09 2018 16:27:08) complex          
  
 executed on             LinuxIFC date 2018.11.26  01:47:37
 running on   16 total cores
 distrk:  each k-point on    4 cores,    4 groups
 distr:  one band on NCORES_PER_BAND=   4 cores,    1 groups


--------------------------------------------------------------------------------------------------------


 INCAR:
 POTCAR:    PAW Og, JanMewes Oct 18               

 ----------------------------------------------------------------------------- 
|                                                                             |
|           W    W    AA    RRRRR   N    N  II  N    N   GGGG   !!!           |
|           W    W   A  A   R    R  NN   N  II  NN   N  G    G  !!!           |
|           W    W  A    A  R    R  N N  N  II  N N  N  G       !!!           |
|           W WW W  AAAAAA  RRRRR   N  N N  II  N  N N  G  GGG   !            |
|           WW  WW  A    A  R   R   N   NN  II  N   NN  G    G                |
|           W    W  A    A  R    R  N    N  II  N    N   GGGG   !!!           |
|                                                                             |
|      You have enabled k-point parallelism (KPAR>1).                         |
|      This developmental code was originally  written by Paul Kent at ORNL,  |
|      and carefully double checked in Vienna.                                |
|      GW as well as linear response parallelism added by Martijn Marsman     |
|      and Georg Kresse.                                                      |
|      Carefully verify results versus KPAR=1.                                |
|      Report problems to Paul Kent and Vienna.                               |
|                                                                             |
 ----------------------------------------------------------------------------- 

 POTCAR:    PAW Og, JanMewes Oct 18               
   VRHFIN =Og : 10d 2s 6p, PE                                                   
   LEXCH  = PE                                                                  
   EATOM  =  2640.5573 eV,  194.0755 Ry                                         
                                                                                
   TITEL  = PAW Og, JanMewes Oct 18                                             
   LULTRA =        F    use ultrasoft PP ?                                      
   IUNSCR =        1    unscreen: 0-lin 1-nonlin 2-no                           
   RPACOR =    1.700    partial core radius                                     
   POMASS =    0.010; ZVAL   =   18.000    mass and valenz                      
   RCORE  =    2.600    outmost cutoff radius                                   
   RWIGS  =    3.500; RWIGS  =    1.852    wigner-seitz radius (au A)           
   ENMAX  =  339.336; ENMIN  =  254.502 eV                                      
   ICORE  =        3    local potential                                         
   LCOR   =        T    correct aug charges                                     
   LPAW   =        T    paw PP                                                  
   EAUG   =  361.025                                                            
   DEXC   =   -0.000                                                            
   RAUG   =    1.300    factor for augmentation sphere                          
   RDEP   =    2.775    radius for radial grids                                 
   RDEPT  =    2.135    core radius for aug-charge                              
   QCUT   =   -4.994; QGAM   =    9.988    optimization parameters              
                                                                                
   Atomic configuration                                                         
   22 entries                                                                   
     n  l   j            E        occ.                                          
     1  0  0.50   -225781.4217   2.0000                                         
     2  0  0.50    -47342.3774   2.0000                                         
     2  1  1.50    -33463.4058   6.0000                                         
     3  0  0.50    -12845.8060   2.0000                                         
     3  1  1.50     -9184.5562   6.0000                                         
     3  2  2.50     -7322.6146  10.0000                                         
     4  0  0.50     -3781.9433   2.0000                                         
     4  1  1.50     -2605.9204   6.0000                                         
     4  2  2.50     -1899.4626  10.0000                                         
     4  3  3.50     -1273.6890  14.0000                                         
     5  0  0.50     -1046.0643   2.0000                                         
     5  1  1.50      -650.9265   6.0000                                         
     5  2  2.50      -388.1490  10.0000                                         
     5  3  3.50      -152.1121  14.0000                                         
     6  0  0.50      -224.6639   2.0000                                         
     6  1  0.50      -184.3267   2.0000                                         
     6  1  1.50       -97.8537   4.0000                                         
     6  2  2.50       -35.6667  10.0000                                         
     7  0  0.50       -28.5889   2.0000                                         
     8  0  0.50        -1.3606   0.0000                                         
     7  1  1.50        -7.0827   6.0000                                         
     6  3  3.50        -0.0136   0.0000                                         
   Description                                                                  
     l       E           TYP  RCUT    TYP  RCUT                                 
     2    -35.6666962     23  2.100                                             
     2     34.0145650     23  2.300                                             
     0    -28.5889381     23  1.600                                             
     0     40.8174780     23  2.200                                             
     1     -7.0826811     23  2.200                                             
     1    148.3035034     23  1.900                                             
     3      6.8029130      7  2.600                                             
  local pseudopotential read in
  partial core-charges read in
  partial kinetic energy density read in
  kinetic energy density of atom read in
  atomic valenz-charges read in
  non local Contribution for L=           2  read in
    real space projection operators read in
  non local Contribution for L=           2  read in
    real space projection operators read in
  non local Contribution for L=           0  read in
    real space projection operators read in
  non local Contribution for L=           0  read in
    real space projection operators read in
  non local Contribution for L=           1  read in
    real space projection operators read in
  non local Contribution for L=           1  read in
    real space projection operators read in
    PAW grid and wavefunctions read in
 
   number of l-projection  operators is LMAX  =           6
   number of lm-projection operators is LMMAX =          18
 

 ----------------------------------------------------------------------------- 
|                                                                             |
|  ADVICE TO THIS USER RUNNING 'VASP/VAMP'   (HEAR YOUR MASTER'S VOICE ...):  |
|                                                                             |
|      You enforced a specific xc-type in the INCAR file,                     |
|      a different type was found on the POTCAR file                          |
|          I HOPE YOU KNOW, WHAT YOU ARE  DOING                               |
|                                                                             |
 ----------------------------------------------------------------------------- 

  PAW Og, JanMewes Oct 18               :
 energy of atom  1       EATOM=-2640.5573
 kinetic energy error for atom=    0.0286 (will be added to EATOM!!)
 
 
 POSCAR: Og_FCC                                  
  positions in direct lattice
  velocities in cartesian coordinates
 exchange correlation table for  LEXCH =       14
   RHO(1)=    0.500       N(1)  =     2000
   RHO(2)=  100.500       N(2)  =     4000
 


--------------------------------------------------------------------------------------------------------


 ion  position               nearest neighbor table
   1  0.000  0.000  0.000-
 
  LATTYP: Found a face centered cubic cell.
 ALAT       =     6.4132809367
  
  Lattice vectors:
  
 A1 = (   4.5348744399,   0.0000000000,   0.0000000000)
 A2 = (   2.2674372200,   3.9273164679,  -0.0000000000)
 A3 = (   2.2674372200,   1.3091054893,   3.7027094752)


Analysis of symmetry for initial positions (statically):
=====================================================================
 Subroutine PRICEL returns:
 Original cell was already a primitive cell.
 

 Routine SETGRP: Setting up the symmetry group for a 
 face centered cubic supercell.


 Subroutine GETGRP returns: Found 48 space group operations
 (whereof 48 operations were pure point group operations)
 out of a pool of 48 trial point group operations.


The static configuration has the point symmetry O_h .


Analysis of symmetry for dynamics (positions and initial velocities):
=====================================================================
 Subroutine PRICEL returns:
 Original cell was already a primitive cell.
 

 Routine SETGRP: Setting up the symmetry group for a 
 face centered cubic supercell.


 Subroutine GETGRP returns: Found 48 space group operations
 (whereof 48 operations were pure point group operations)
 out of a pool of 48 trial point group operations.


The dynamic configuration has the point symmetry O_h .


 Subroutine INISYM returns: Found 48 space group operations
 (whereof 48 operations are pure point group operations),
 and found     1 'primitive' translations

 
 

Automatic generation of k-mesh.
 generate k-points for:    9    9    9
Space group operators:
 irot       det(A)        alpha          n_x          n_y          n_z        tau_x        tau_y        tau_z
    1     1.000000     0.000000     1.000000     0.000000     0.000000     0.000000     0.000000     0.000000
    2    -1.000000     0.000000     1.000000     0.000000     0.000000     0.000000     0.000000     0.000000
    3     1.000000   120.000000    -0.816497    -0.471405    -0.333333     0.000000     0.000000     0.000000
    4    -1.000000   120.000000    -0.816497    -0.471405    -0.333333     0.000000     0.000000     0.000000
    5     1.000000   120.000000     0.816497     0.471405     0.333333     0.000000     0.000000     0.000000
    6    -1.000000   120.000000     0.816497     0.471405     0.333333     0.000000     0.000000     0.000000
    7     1.000000    90.000000    -0.707107    -0.408248     0.577350     0.000000     0.000000     0.000000
    8    -1.000000    90.000000    -0.707107    -0.408248     0.577350     0.000000     0.000000     0.000000
    9     1.000000   180.000000     1.000000     0.000000     0.000000     0.000000     0.000000     0.000000
   10    -1.000000   180.000000     1.000000     0.000000     0.000000     0.000000     0.000000     0.000000
   11     1.000000    90.000000     0.707107    -0.408248     0.577350     0.000000     0.000000     0.000000
   12    -1.000000    90.000000     0.707107    -0.408248     0.577350     0.000000     0.000000     0.000000
   13     1.000000   180.000000     0.707107     0.408248    -0.577350     0.000000     0.000000     0.000000
   14    -1.000000   180.000000     0.707107     0.408248    -0.577350     0.000000     0.000000     0.000000
   15     1.000000   120.000000     0.816497    -0.471405    -0.333333     0.000000     0.000000     0.000000
   16    -1.000000   120.000000     0.816497    -0.471405    -0.333333     0.000000     0.000000     0.000000
   17     1.000000   120.000000     0.000000    -0.942809     0.333333     0.000000     0.000000     0.000000
   18    -1.000000   120.000000     0.000000    -0.942809     0.333333     0.000000     0.000000     0.000000
   19     1.000000    90.000000     0.707107     0.408248    -0.577350     0.000000     0.000000     0.000000
   20    -1.000000    90.000000     0.707107     0.408248    -0.577350     0.000000     0.000000     0.000000
   21     1.000000    90.000000    -0.000000    -0.816497    -0.577350     0.000000     0.000000     0.000000
   22    -1.000000    90.000000    -0.000000    -0.816497    -0.577350     0.000000     0.000000     0.000000
   23     1.000000   180.000000     0.500000     0.866025     0.000000     0.000000     0.000000     0.000000
   24    -1.000000   180.000000     0.500000     0.866025     0.000000     0.000000     0.000000     0.000000
   25     1.000000   120.000000     0.000000     0.942809    -0.333333     0.000000     0.000000     0.000000
   26    -1.000000   120.000000     0.000000     0.942809    -0.333333     0.000000     0.000000     0.000000
   27     1.000000   120.000000    -0.000000     0.000000    -1.000000     0.000000     0.000000     0.000000
   28    -1.000000   120.000000    -0.000000     0.000000    -1.000000     0.000000     0.000000     0.000000
   29     1.000000   180.000000    -0.000000     0.816497     0.577350     0.000000     0.000000     0.000000
   30    -1.000000   180.000000    -0.000000     0.816497     0.577350     0.000000     0.000000     0.000000
   31     1.000000    90.000000    -0.707107     0.408248    -0.577350     0.000000     0.000000     0.000000
   32    -1.000000    90.000000    -0.707107     0.408248    -0.577350     0.000000     0.000000     0.000000
   33     1.000000   180.000000     0.500000     0.288675     0.816497     0.000000     0.000000     0.000000
   34    -1.000000   180.000000     0.500000     0.288675     0.816497     0.000000     0.000000     0.000000
   35     1.000000    90.000000    -0.000000     0.816497     0.577350     0.000000     0.000000     0.000000
   36    -1.000000    90.000000    -0.000000     0.816497     0.577350     0.000000     0.000000     0.000000
   37     1.000000   120.000000    -0.816497     0.471405     0.333333     0.000000     0.000000     0.000000
   38    -1.000000   120.000000    -0.816497     0.471405     0.333333     0.000000     0.000000     0.000000
   39     1.000000   180.000000    -0.707107     0.408248    -0.577350     0.000000     0.000000     0.000000
   40    -1.000000   180.000000    -0.707107     0.408248    -0.577350     0.000000     0.000000     0.000000
   41     1.000000   120.000000    -0.000000    -0.000000     1.000000     0.000000     0.000000     0.000000
   42    -1.000000   120.000000    -0.000000    -0.000000     1.000000     0.000000     0.000000     0.000000
   43     1.000000   180.000000     0.000000     0.577350    -0.816497     0.000000     0.000000     0.000000
   44    -1.000000   180.000000     0.000000     0.577350    -0.816497     0.000000     0.000000     0.000000
   45     1.000000   180.000000    -0.500000     0.866025     0.000000     0.000000     0.000000     0.000000
   46    -1.000000   180.000000    -0.500000     0.866025     0.000000     0.000000     0.000000     0.000000
   47     1.000000   180.000000    -0.500000     0.288675     0.816497     0.000000     0.000000     0.000000
   48    -1.000000   180.000000    -0.500000     0.288675     0.816497     0.000000     0.000000     0.000000
 
 Subroutine IBZKPT returns following result:
 ===========================================
 
 Found     35 irreducible k-points:
 
 Following reciprocal coordinates:
            Coordinates               Weight
  0.000000  0.000000  0.000000      1.000000
  0.111111 -0.000000 -0.000000      8.000000
  0.222222 -0.000000 -0.000000      8.000000
  0.333333 -0.000000 -0.000000      8.000000
  0.444444 -0.000000 -0.000000      8.000000
  0.111111  0.111111 -0.000000      6.000000
  0.222222  0.111111 -0.000000     24.000000
  0.333333  0.111111 -0.000000     24.000000
  0.444444  0.111111 -0.000000     24.000000
 -0.444444  0.111111  0.000000     24.000000
 -0.333333  0.111111  0.000000     24.000000
 -0.222222  0.111111  0.000000     24.000000
 -0.111111  0.111111  0.000000     12.000000
  0.222222  0.222222  0.000000      6.000000
  0.333333  0.222222 -0.000000     24.000000
  0.444444  0.222222 -0.000000     24.000000
 -0.444444  0.222222  0.000000     24.000000
 -0.333333  0.222222  0.000000     24.000000
 -0.222222  0.222222  0.000000     12.000000
  0.333333  0.333333  0.000000      6.000000
  0.444444  0.333333 -0.000000     24.000000
 -0.444444  0.333333  0.000000     24.000000
 -0.333333  0.333333  0.000000     12.000000
  0.444444  0.444444  0.000000      6.000000
 -0.444444  0.444444  0.000000     12.000000
  0.333333  0.222222  0.111111     24.000000
  0.444444  0.222222  0.111111     48.000000
 -0.444444  0.222222  0.111111     48.000000
  0.444444  0.333333  0.111111     24.000000
 -0.444444  0.333333  0.111111     48.000000
 -0.333333  0.333333  0.111111     48.000000
 -0.222222  0.333333  0.111111     24.000000
 -0.444444  0.444444  0.111111     24.000000
 -0.333333  0.444444  0.111111     24.000000
 -0.333333  0.444444  0.222222     24.000000
 
 Following cartesian coordinates:
            Coordinates               Weight
  0.000000  0.000000  0.000000      1.000000
  0.024746 -0.014287 -0.010103      8.000000
  0.049493 -0.028575 -0.020205      8.000000
  0.074239 -0.042862 -0.030308      8.000000
  0.098986 -0.057150 -0.040411      8.000000
  0.024746  0.014287 -0.020205      6.000000
  0.049493 -0.000000 -0.030308     24.000000
  0.074239 -0.014287 -0.040411     24.000000
  0.098986 -0.028575 -0.050514     24.000000
 -0.098986  0.085724  0.030308     24.000000
 -0.074239  0.071437  0.020205     24.000000
 -0.049493  0.057150  0.010103     24.000000
 -0.024746  0.042862  0.000000     12.000000
  0.049493  0.028575 -0.040411      6.000000
  0.074239  0.014287 -0.050514     24.000000
  0.098986 -0.000000 -0.060616     24.000000
 -0.098986  0.114299  0.020205     24.000000
 -0.074239  0.100012  0.010103     24.000000
 -0.049493  0.085724  0.000000     12.000000
  0.074239  0.042862 -0.060616      6.000000
  0.098986  0.028575 -0.070719     24.000000
 -0.098986  0.142874  0.010103     24.000000
 -0.074239  0.128587  0.000000     12.000000
  0.098986  0.057150 -0.080822      6.000000
 -0.098986  0.171449  0.000000     12.000000
  0.074239  0.014287 -0.020205     24.000000
  0.098986  0.000000 -0.030308     48.000000
 -0.098986  0.114299  0.050514     48.000000
  0.098986  0.028575 -0.040411     24.000000
 -0.098986  0.142874  0.040411     48.000000
 -0.074239  0.128587  0.030308     48.000000
 -0.049493  0.114299  0.020205     24.000000
 -0.098986  0.171449  0.030308     24.000000
 -0.074239  0.157161  0.020205     24.000000
 -0.074239  0.157161  0.050514     24.000000
 


--------------------------------------------------------------------------------------------------------




 Dimension of arrays:
   k-points           NKPTS =     35   k-points in BZ     NKDIM =     35   number of bands    NBANDS=     13
   number of dos      NEDOS =    301   number of ions     NIONS =      1
   non local maximal  LDIM  =      6   non local SUM 2l+1 LMDIM =     18
   total plane-waves  NPLWV =  46656
   max r-space proj   IRMAX =      1   max aug-charges    IRDMAX= 340043
   dimension x,y,z NGX =    36 NGY =   36 NGZ =   36
   dimension x,y,z NGXF=    72 NGYF=   72 NGZF=   72
   support grid    NGXF=   144 NGYF=  144 NGZF=  144
   ions per type =               1
   NGX,Y,Z   is equivalent  to a cutoff of  13.20, 13.20, 13.20 a.u.
   NGXF,Y,Z  is equivalent  to a cutoff of  26.39, 26.39, 26.39 a.u.

 SYSTEM =  Og_FCC                                  
 POSCAR =  Og_FCC                                  

 Startparameter for this run:
   NWRITE =      2    write-flag & timer
   PREC   = accura    normal or accurate (medium, high low for compatibility)
   ISTART =      0    job   : 0-new  1-cont  2-samecut
   ICHARG =      2    charge: 1-file 2-atom 10-const
   ISPIN  =      1    spin polarized calculation?
   LNONCOLLINEAR =      F non collinear calculations
   LSORBIT =      F    spin-orbit coupling
   INIWAV =      1    electr: 0-lowe 1-rand  2-diag
   LASPH  =      F    aspherical Exc in radial PAW
   METAGGA=      F    non-selfconsistent MetaGGA calc.

 Electronic Relaxation 1
   ENCUT  =  600.0 eV  44.10 Ry    6.64 a.u.   9.06  9.06  9.06*2*pi/ulx,y,z
   ENINI  =  600.0     initial cutoff
   ENAUG  =  361.0 eV  augmentation charge cutoff
   NELM   =    100;   NELMIN=  5; NELMDL= -5     # of ELM steps 
   EDIFF  = 0.1E-06   stopping-criterion for ELM
   LREAL  =      F    real-space projection
   NLSPLINE    = F    spline interpolate recip. space projectors
   LCOMPAT=      F    compatible to vasp.4.4
   GGA_COMPAT  = F    GGA compatible to vasp.4.4-vasp.4.6
   LMAXPAW     = -100 max onsite density
   LMAXMIX     =    2 max onsite mixed and CHGCAR
   VOSKOWN=      0    Vosko Wilk Nusair interpolation
   ROPT   =    0.00000
 Ionic relaxation
   EDIFFG = 0.1E-04   stopping-criterion for IOM
   NSW    =      1    number of steps for IOM
   NBLOCK =      1;   KBLOCK =      1    inner block; outer block 
   IBRION =     -1    ionic relax: 0-MD 1-quasi-New 2-CG
   NFREE  =      5    steps in history (QN), initial steepest desc. (CG)
   ISIF   =      7    stress and relaxation
   IWAVPR =     10    prediction:  0-non 1-charg 2-wave 3-comb
   ISYM   =      2    0-nonsym 1-usesym 2-fastsym
   LCORR  =      T    Harris-Foulkes like correction to forces

   POTIM  = 0.1000    time-step for ionic-motion
   TEIN   =    0.0    initial temperature
   TEBEG  =    0.0;   TEEND  =   0.0 temperature during run
   SMASS  =  -3.00    Nose mass-parameter (am)
   estimated Nose-frequenzy (Omega)   =  0.10E-29 period in steps =****** mass=  -0.470E-27a.u.
   SCALEE = 1.0000    scale energy and forces
   NPACO  =    256;   APACO  = 16.0  distance and # of slots for P.C.
   PSTRESS=    0.0 pullay stress

  Mass of Ions in am
   POMASS =   0.01
  Ionic Valenz
   ZVAL   =  18.00
  Atomic Wigner-Seitz radii
   RWIGS  =  -1.00
  virtual crystal weights 
   VCA    =   1.00
   NELECT =      18.0000    total number of electrons
   NUPDOWN=      -1.0000    fix difference up-down

 DOS related values:
   EMIN   =  10.00;   EMAX   =-10.00  energy-range for DOS
   EFERMI =   0.00
   ISMEAR =     1;   SIGMA  =   0.10  broadening in eV -4-tet -1-fermi 0-gaus

 Electronic relaxation 2 (details)
   IALGO  =     68    algorithm
   LDIAG  =      T    sub-space diagonalisation (order eigenvalues)
   LSUBROT=      F    optimize rotation matrix (better conditioning)
   TURBO    =      0    0=normal 1=particle mesh
   IRESTART =      0    0=no restart 2=restart with 2 vectors
   NREBOOT  =      0    no. of reboots
   NMIN     =      0    reboot dimension
   EREF     =   0.00    reference energy to select bands
   IMIX   =      4    mixing-type and parameters
     AMIX     =   0.40;   BMIX     =  1.00
     AMIX_MAG =   1.60;   BMIX_MAG =  1.00
     AMIN     =   0.10
     WC   =   100.;   INIMIX=   1;  MIXPRE=   1;  MAXMIX=  50

 Intra band minimization:
   WEIMIN = 0.0000     energy-eigenvalue tresh-hold
   EBREAK =  0.19E-08  absolut break condition
   DEPER  =   0.30     relativ break condition  

   TIME   =   0.40     timestep for ELM

  volume/ion in A,a.u.               =      65.94       445.02
  Fermi-wavevector in a.u.,A,eV,Ry     =   1.061953  2.006801 15.343898  1.127745
  Thomas-Fermi vector in A             =   2.197387
 
 Write flags
   LWAVE        =      F    write WAVECAR
   LDOWNSAMPLE  =      F    k-point downsampling of WAVECAR
   LCHARG       =      F    write CHGCAR
   LVTOT        =      F    write LOCPOT, total local potential
   LVHAR        =      F    write LOCPOT, Hartree potential only
   LELF         =      F    write electronic localiz. function (ELF)
   LORBIT       =      0    0 simple, 1 ext, 2 COOP (PROOUT), +10 PAW based schemes


 Dipole corrections
   LMONO  =      F    monopole corrections only (constant potential shift)
   LDIPOL =      F    correct potential (dipole corrections)
   IDIPOL =      0    1-x, 2-y, 3-z, 4-all directions 
   EPSILON=  1.0000000 bulk dielectric constant

 Exchange correlation treatment:
   GGA     =    PS    GGA type
   LEXCH   =    14    internal setting for exchange type
   VOSKOWN=      0    Vosko Wilk Nusair interpolation
   LHFCALC =     F    Hartree Fock is set to
   LHFONE  =     F    Hartree Fock one center treatment
   AEXX    =    0.0000 exact exchange contribution

 Linear response parameters
   LEPSILON=     F    determine dielectric tensor
   LRPA    =     F    only Hartree local field effects (RPA)
   LNABLA  =     F    use nabla operator in PAW spheres
   LVEL    =     F    velocity operator in full k-point grid
   LINTERFAST=   F  fast interpolation
   KINTER  =     0    interpolate to denser k-point grid
   CSHIFT  =0.1000    complex shift for real part using Kramers Kronig
   OMEGAMAX=  -1.0    maximum frequency
   DEG_THRESHOLD= 0.2000000E-02 threshold for treating states as degnerate
   RTIME   =   -0.100 relaxation time in fs
  (WPLASMAI=    0.000 imaginary part of plasma frequency in eV, 0.658/RTIME)
   DFIELD  = 0.0000000 0.0000000 0.0000000 field for delta impulse in time
 
 Orbital magnetization related:
   ORBITALMAG=     F  switch on orbital magnetization
   LCHIMAG   =     F  perturbation theory with respect to B field
   DQ        =  0.001000  dq finite difference perturbation B field
   LLRAUG    =     F  two centre corrections for induced B field



--------------------------------------------------------------------------------------------------------


 Static calculation
 charge density and potential will be updated during run
 non-spin polarized calculation
 RMM-DIIS sequential band-by-band and
  variant of blocked Davidson during initial phase
 perform sub-space diagonalisation
    before iterative eigenvector-optimisation
 modified Broyden-mixing scheme, WC =      100.0
 initial mixing is a Kerker type mixing with AMIX =  0.4000 and BMIX =      1.0000
 Hartree-type preconditioning will be used
 using additional bands            4
 reciprocal scheme for non local part
 use partial core corrections
 calculate Harris-corrections to forces 
   (improved forces if not selfconsistent)
 use gradient corrections 
 use of overlap-Matrix (Vanderbilt PP)
 Methfessel and Paxton  Order N= 1 SIGMA  =   0.10


--------------------------------------------------------------------------------------------------------


  energy-cutoff  :      600.00
  volume of cell :       65.94
      direct lattice vectors                 reciprocal lattice vectors
     4.534874440  0.000000000  0.000000000     0.220513272 -0.127313397 -0.090024166
     2.267437220  3.927316468 -0.000000000     0.000000000  0.254626794 -0.090024166
     2.267437220  1.309105489  3.702709475    -0.000000000  0.000000000  0.270072499

  length of vectors
     4.534874440  4.534874440  4.534874440     0.270072499  0.270072499  0.270072499


 
 k-points in units of 2pi/SCALE and weight: read from INCAR                         
   0.00000000  0.00000000  0.00000000       0.001
   0.02474649 -0.01428739 -0.01010271       0.011
   0.04949298 -0.02857478 -0.02020542       0.011
   0.07423947 -0.04286218 -0.03030814       0.011
   0.09898596 -0.05714957 -0.04041085       0.011
   0.02474649  0.01428739 -0.02020542       0.008
   0.04949298 -0.00000000 -0.03030814       0.033
   0.07423947 -0.01428739 -0.04041085       0.033
   0.09898596 -0.02857478 -0.05051356       0.033
  -0.09898596  0.08572435  0.03030814       0.033
  -0.07423947  0.07143696  0.02020542       0.033
  -0.04949298  0.05714957  0.01010271       0.033
  -0.02474649  0.04286218  0.00000000       0.016
   0.04949298  0.02857478 -0.04041085       0.008
   0.07423947  0.01428739 -0.05051356       0.033
   0.09898596 -0.00000000 -0.06061627       0.033
  -0.09898596  0.11429914  0.02020542       0.033
  -0.07423947  0.10001175  0.01010271       0.033
  -0.04949298  0.08572435  0.00000000       0.016
   0.07423947  0.04286218 -0.06061627       0.008
   0.09898596  0.02857478 -0.07071898       0.033
  -0.09898596  0.14287392  0.01010271       0.033
  -0.07423947  0.12858653  0.00000000       0.016
   0.09898596  0.05714957 -0.08082170       0.008
  -0.09898596  0.17144871  0.00000000       0.016
   0.07423947  0.01428739 -0.02020542       0.033
   0.09898596  0.00000000 -0.03030814       0.066
  -0.09898596  0.11429914  0.05051356       0.066
   0.09898596  0.02857478 -0.04041085       0.033
  -0.09898596  0.14287392  0.04041085       0.066
  -0.07423947  0.12858653  0.03030814       0.066
  -0.04949298  0.11429914  0.02020542       0.033
  -0.09898596  0.17144871  0.03030814       0.033
  -0.07423947  0.15716132  0.02020542       0.033
  -0.07423947  0.15716132  0.05051356       0.033
 
 k-points in reciprocal lattice and weights: read from INCAR                         
   0.00000000  0.00000000  0.00000000       0.001
   0.11111111 -0.00000000 -0.00000000       0.011
   0.22222222 -0.00000000 -0.00000000       0.011
   0.33333333 -0.00000000 -0.00000000       0.011
   0.44444444 -0.00000000 -0.00000000       0.011
   0.11111111  0.11111111 -0.00000000       0.008
   0.22222222  0.11111111 -0.00000000       0.033
   0.33333333  0.11111111 -0.00000000       0.033
   0.44444444  0.11111111 -0.00000000       0.033
  -0.44444444  0.11111111  0.00000000       0.033
  -0.33333333  0.11111111  0.00000000       0.033
  -0.22222222  0.11111111  0.00000000       0.033
  -0.11111111  0.11111111  0.00000000       0.016
   0.22222222  0.22222222  0.00000000       0.008
   0.33333333  0.22222222 -0.00000000       0.033
   0.44444444  0.22222222 -0.00000000       0.033
  -0.44444444  0.22222222  0.00000000       0.033
  -0.33333333  0.22222222  0.00000000       0.033
  -0.22222222  0.22222222  0.00000000       0.016
   0.33333333  0.33333333  0.00000000       0.008
   0.44444444  0.33333333 -0.00000000       0.033
  -0.44444444  0.33333333  0.00000000       0.033
  -0.33333333  0.33333333  0.00000000       0.016
   0.44444444  0.44444444  0.00000000       0.008
  -0.44444444  0.44444444  0.00000000       0.016
   0.33333333  0.22222222  0.11111111       0.033
   0.44444444  0.22222222  0.11111111       0.066
  -0.44444444  0.22222222  0.11111111       0.066
   0.44444444  0.33333333  0.11111111       0.033
  -0.44444444  0.33333333  0.11111111       0.066
  -0.33333333  0.33333333  0.11111111       0.066
  -0.22222222  0.33333333  0.11111111       0.033
  -0.44444444  0.44444444  0.11111111       0.033
  -0.33333333  0.44444444  0.11111111       0.033
  -0.33333333  0.44444444  0.22222222       0.033
 
 position of ions in fractional coordinates (direct lattice) 
   0.00000000  0.00000000  0.00000000
 
 position of ions in cartesian coordinates  (Angst):
   0.00000000  0.00000000  0.00000000
 


--------------------------------------------------------------------------------------------------------


 k-point  1 :   0.0000 0.0000 0.0000  plane waves:    2229
 k-point  2 :   0.1111-0.0000-0.0000  plane waves:    2181
 k-point  3 :   0.2222-0.0000-0.0000  plane waves:    2196
 k-point  4 :   0.3333-0.0000-0.0000  plane waves:    2205
 k-point  5 :   0.4444-0.0000-0.0000  plane waves:    2201
 k-point  6 :   0.1111 0.1111-0.0000  plane waves:    2181
 k-point  7 :   0.2222 0.1111-0.0000  plane waves:    2195
 k-point  8 :   0.3333 0.1111-0.0000  plane waves:    2186
 k-point  9 :   0.4444 0.1111-0.0000  plane waves:    2197
 k-point 10 :  -0.4444 0.1111 0.0000  plane waves:    2195
 k-point 11 :  -0.3333 0.1111 0.0000  plane waves:    2198
 k-point 12 :  -0.2222 0.1111 0.0000  plane waves:    2195
 k-point 13 :  -0.1111 0.1111 0.0000  plane waves:    2185
 k-point 14 :   0.2222 0.2222 0.0000  plane waves:    2197
 k-point 15 :   0.3333 0.2222-0.0000  plane waves:    2199
 k-point 16 :   0.4444 0.2222-0.0000  plane waves:    2203
 k-point 17 :  -0.4444 0.2222 0.0000  plane waves:    2208
 k-point 18 :  -0.3333 0.2222 0.0000  plane waves:    2203
 k-point 19 :  -0.2222 0.2222 0.0000  plane waves:    2195
 k-point 20 :   0.3333 0.3333 0.0000  plane waves:    2181
 k-point 21 :   0.4444 0.3333-0.0000  plane waves:    2193
 k-point 22 :  -0.4444 0.3333 0.0000  plane waves:    2204
 k-point 23 :  -0.3333 0.3333 0.0000  plane waves:    2215
 k-point 24 :   0.4444 0.4444 0.0000  plane waves:    2204
 k-point 25 :  -0.4444 0.4444 0.0000  plane waves:    2207
 k-point 26 :   0.3333 0.2222 0.1111  plane waves:    2194
 k-point 27 :   0.4444 0.2222 0.1111  plane waves:    2201
 k-point 28 :  -0.4444 0.2222 0.1111  plane waves:    2206
 k-point 29 :   0.4444 0.3333 0.1111  plane waves:    2198
 k-point 30 :  -0.4444 0.3333 0.1111  plane waves:    2207
 k-point 31 :  -0.3333 0.3333 0.1111  plane waves:    2218
 k-point 32 :  -0.2222 0.3333 0.1111  plane waves:    2204
 k-point 33 :  -0.4444 0.4444 0.1111  plane waves:    2201
 k-point 34 :  -0.3333 0.4444 0.1111  plane waves:    2202
 k-point 35 :  -0.3333 0.4444 0.2222  plane waves:    2210

 maximum and minimum number of plane-waves per node :       568      534

 maximum number of plane-waves:      2229
 maximum index in each direction: 
   IXMAX=    9   IYMAX=    9   IZMAX=    9
   IXMIN=   -9   IYMIN=   -9   IZMIN=   -9


 parallel 3D FFT for wavefunctions:
    minimum data exchange during FFTs selected (reduces bandwidth)
 parallel 3D FFT for charge:
    minimum data exchange during FFTs selected (reduces bandwidth)


 total amount of memory used by VASP MPI-rank0    56218. kBytes
=======================================================================

   base      :      30000. kBytes
   nonl-proj :       2831. kBytes
   fftplans  :      14132. kBytes
   grid      :       5033. kBytes
   one-center:         15. kBytes
   wavefun   :       4207. kBytes
 
     INWAV:  cpu time    0.0000: real time    0.0000
 Broyden mixing: mesh for mixing (old mesh)
   NGX = 19   NGY = 19   NGZ = 19
  (NGX  = 72   NGY  = 72   NGZ  = 72)
  gives a total of   6859 points

 initial charge density was supplied:
 charge density of overlapping atoms calculated
 number of electron      18.0000000 magnetization 
 keeping initial charge density in first step


--------------------------------------------------------------------------------------------------------


 Maximum index for augmentation-charges        82489 (set IRDMAX)


--------------------------------------------------------------------------------------------------------


 First call to EWALD:  gamma=   0.439
 Maximum number of real-space cells 3x 3x 3
 Maximum number of reciprocal cells 3x 3x 3

    FEWALD:  cpu time    0.0013: real time    0.0013


--------------------------------------- Iteration      1(   1)  ---------------------------------------


    POTLOK:  cpu time    0.0545: real time    0.0558
    SETDIJ:  cpu time    0.0834: real time    0.0834
     EDDAV:  cpu time    0.1581: real time    0.1601
       DOS:  cpu time    0.0006: real time    0.0006
    --------------------------------------------
      LOOP:  cpu time    0.2966: real time    0.2999

 eigenvalue-minimisations  :   926
 total energy-change (2. order) : 0.2924113E+03  (-0.9618499E+03)
 number of electron      18.0000000 magnetization 
 augmentation part       18.0000000 magnetization 

 Free energy of the ion-electron system (eV)
  ---------------------------------------------------
  alpha Z        PSCENC =        57.85527327
  Ewald energy   TEWEN  =     -1667.69681062
  -Hartree energ DENC   =      -709.27859898
  -exchange      EXHF   =         0.00000000
  -V(xc)+E(xc)   XCENC  =       -67.24717049
  PAW double counting   =      2266.27872487    -2184.08858500
  entropy T*S    EENTRO =         0.00011008
  eigenvalues    EBANDS =       -45.42912071
  atomic energy  EATOM  =      2642.01744135
  Solvation  Ediel_sol  =         0.00000000
  ---------------------------------------------------
  free energy    TOTEN  =       292.41126375 eV

  energy without entropy =      292.41115368  energy(sigma->0) =      292.41122706


--------------------------------------------------------------------------------------------------------




--------------------------------------- Iteration      1(   2)  ---------------------------------------


     EDDAV:  cpu time    0.1842: real time    0.1846
       DOS:  cpu time    0.0005: real time    0.0005
    --------------------------------------------
      LOOP:  cpu time    0.1846: real time    0.1850

 eigenvalue-minimisations  :  1171
 total energy-change (2. order) :-0.2825543E+03  (-0.2758967E+03)
 number of electron      18.0000000 magnetization 
 augmentation part       18.0000000 magnetization 

 Free energy of the ion-electron system (eV)
  ---------------------------------------------------
  alpha Z        PSCENC =        57.85527327
  Ewald energy   TEWEN  =     -1667.69681062
  -Hartree energ DENC   =      -709.27859898
  -exchange      EXHF   =         0.00000000
  -V(xc)+E(xc)   XCENC  =       -67.24717049
  PAW double counting   =      2266.27872487    -2184.08858500
  entropy T*S    EENTRO =         0.00009544
  eigenvalues    EBANDS =      -327.98344192
  atomic energy  EATOM  =      2642.01744135
  Solvation  Ediel_sol  =         0.00000000
  ---------------------------------------------------
  free energy    TOTEN  =         9.85692791 eV

  energy without entropy =        9.85683247  energy(sigma->0) =        9.85689610


--------------------------------------------------------------------------------------------------------




--------------------------------------- Iteration      1(   3)  ---------------------------------------


     EDDAV:  cpu time    0.1887: real time    0.1891
       DOS:  cpu time    0.0005: real time    0.0005
    --------------------------------------------
      LOOP:  cpu time    0.1892: real time    0.1896

 eigenvalue-minimisations  :  1075
 total energy-change (2. order) :-0.9777398E+01  (-0.9762072E+01)
 number of electron      18.0000000 magnetization 
 augmentation part       18.0000000 magnetization 

 Free energy of the ion-electron system (eV)
  ---------------------------------------------------
  alpha Z        PSCENC =        57.85527327
  Ewald energy   TEWEN  =     -1667.69681062
  -Hartree energ DENC   =      -709.27859898
  -exchange      EXHF   =         0.00000000
  -V(xc)+E(xc)   XCENC  =       -67.24717049
  PAW double counting   =      2266.27872487    -2184.08858500
  entropy T*S    EENTRO =         0.00072759
  eigenvalues    EBANDS =      -337.76147246
  atomic energy  EATOM  =      2642.01744135
  Solvation  Ediel_sol  =         0.00000000
  ---------------------------------------------------
  free energy    TOTEN  =         0.07952952 eV

  energy without entropy =        0.07880193  energy(sigma->0) =        0.07928699


--------------------------------------------------------------------------------------------------------




--------------------------------------- Iteration      1(   4)  ---------------------------------------


     EDDAV:  cpu time    0.1897: real time    0.1899
       DOS:  cpu time    0.0005: real time    0.0005
    --------------------------------------------
      LOOP:  cpu time    0.1902: real time    0.1904

 eigenvalue-minimisations  :  1332
 total energy-change (2. order) :-0.1854482E+00  (-0.1854037E+00)
 number of electron      18.0000000 magnetization 
 augmentation part       18.0000000 magnetization 

 Free energy of the ion-electron system (eV)
  ---------------------------------------------------
  alpha Z        PSCENC =        57.85527327
  Ewald energy   TEWEN  =     -1667.69681062
  -Hartree energ DENC   =      -709.27859898
  -exchange      EXHF   =         0.00000000
  -V(xc)+E(xc)   XCENC  =       -67.24717049
  PAW double counting   =      2266.27872487    -2184.08858500
  entropy T*S    EENTRO =         0.00065340
  eigenvalues    EBANDS =      -337.94684643
  atomic energy  EATOM  =      2642.01744135
  Solvation  Ediel_sol  =         0.00000000
  ---------------------------------------------------
  free energy    TOTEN  =        -0.10591863 eV

  energy without entropy =       -0.10657204  energy(sigma->0) =       -0.10613644


--------------------------------------------------------------------------------------------------------




--------------------------------------- Iteration      1(   5)  ---------------------------------------


     EDDAV:  cpu time    0.1842: real time    0.1852
       DOS:  cpu time    0.0006: real time    0.0008
    CHARGE:  cpu time    0.1013: real time    0.1027
    MIXING:  cpu time    0.0024: real time    0.0024
    --------------------------------------------
      LOOP:  cpu time    0.2885: real time    0.2910

 eigenvalue-minimisations  :  1190
 total energy-change (2. order) :-0.8134589E-02  (-0.8134504E-02)
 number of electron      18.0000000 magnetization 
 augmentation part        2.9931673 magnetization 

 Broyden mixing:
  rms(total) = 0.19817E-01    rms(broyden)= 0.19057E-01
  rms(prec ) = 0.49867E-01
  weight for this iteration     100.00

 Free energy of the ion-electron system (eV)
  ---------------------------------------------------
  alpha Z        PSCENC =        57.85527327
  Ewald energy   TEWEN  =     -1667.69681062
  -Hartree energ DENC   =      -709.27859898
  -exchange      EXHF   =         0.00000000
  -V(xc)+E(xc)   XCENC  =       -67.24717049
  PAW double counting   =      2266.27872487    -2184.08858500
  entropy T*S    EENTRO =         0.00065325
  eigenvalues    EBANDS =      -337.95498087
  atomic energy  EATOM  =      2642.01744135
  Solvation  Ediel_sol  =         0.00000000
  ---------------------------------------------------
  free energy    TOTEN  =        -0.11405322 eV

  energy without entropy =       -0.11470648  energy(sigma->0) =       -0.11427097


--------------------------------------------------------------------------------------------------------




--------------------------------------- Iteration      1(   6)  ---------------------------------------


    POTLOK:  cpu time    0.0509: real time    0.0511
    SETDIJ:  cpu time    0.0835: real time    0.0835
    EDDIAG:  cpu time    0.0372: real time    0.0372
  RMM-DIIS:  cpu time    0.1549: real time    0.1549
    ORTHCH:  cpu time    0.0011: real time    0.0011
       DOS:  cpu time    0.0005: real time    0.0005
    CHARGE:  cpu time    0.1119: real time    0.1119
    MIXING:  cpu time    0.0025: real time    0.0025
    --------------------------------------------
      LOOP:  cpu time    0.4424: real time    0.4427

 eigenvalue-minimisations  :  1099
 total energy-change (2. order) :-0.3101933E-03  (-0.3976959E-03)
 number of electron      18.0000000 magnetization 
 augmentation part        2.9919885 magnetization 

 Broyden mixing:
  rms(total) = 0.11112E-01    rms(broyden)= 0.11059E-01
  rms(prec ) = 0.29443E-01
  weight for this iteration     100.00

 eigenvalues of (default mixing * dielectric matrix)
  average eigenvalue GAMMA=   2.2861
  2.2861

 Free energy of the ion-electron system (eV)
  ---------------------------------------------------
  alpha Z        PSCENC =        57.85527327
  Ewald energy   TEWEN  =     -1667.69681062
  -Hartree energ DENC   =      -708.70567529
  -exchange      EXHF   =         0.00000000
  -V(xc)+E(xc)   XCENC  =       -67.27947449
  PAW double counting   =      2259.37133372    -2177.12618594
  entropy T*S    EENTRO =         0.00065494
  eigenvalues    EBANDS =      -338.55092035
  atomic energy  EATOM  =      2642.01744135
  Solvation  Ediel_sol  =         0.00000000
  ---------------------------------------------------
  free energy    TOTEN  =        -0.11436342 eV

  energy without entropy =       -0.11501836  energy(sigma->0) =       -0.11458173


--------------------------------------------------------------------------------------------------------




--------------------------------------- Iteration      1(   7)  ---------------------------------------


    POTLOK:  cpu time    0.0491: real time    0.0493
    SETDIJ:  cpu time    0.0799: real time    0.0799
    EDDIAG:  cpu time    0.0356: real time    0.0356
  RMM-DIIS:  cpu time    0.1452: real time    0.1452
    ORTHCH:  cpu time    0.0011: real time    0.0011
       DOS:  cpu time    0.0005: real time    0.0005
    CHARGE:  cpu time    0.0912: real time    0.0912
    MIXING:  cpu time    0.0021: real time    0.0021
    --------------------------------------------
      LOOP:  cpu time    0.4048: real time    0.4050

 eigenvalue-minimisations  :  1089
 total energy-change (2. order) :-0.2806333E-03  (-0.1741239E-03)
 number of electron      18.0000000 magnetization 
 augmentation part        2.9909042 magnetization 

 Broyden mixing:
  rms(total) = 0.18371E-02    rms(broyden)= 0.18247E-02
  rms(prec ) = 0.40222E-02
  weight for this iteration     100.00

 eigenvalues of (default mixing * dielectric matrix)
  average eigenvalue GAMMA=   2.3675
  1.9255  2.8094

 Free energy of the ion-electron system (eV)
  ---------------------------------------------------
  alpha Z        PSCENC =        57.85527327
  Ewald energy   TEWEN  =     -1667.69681062
  -Hartree energ DENC   =      -707.92351803
  -exchange      EXHF   =         0.00000000
  -V(xc)+E(xc)   XCENC  =       -67.32224614
  PAW double counting   =      2251.59992132    -2169.31019000
  entropy T*S    EENTRO =         0.00065681
  eigenvalues    EBANDS =      -339.33517201
  atomic energy  EATOM  =      2642.01744135
  Solvation  Ediel_sol  =         0.00000000
  ---------------------------------------------------
  free energy    TOTEN  =        -0.11464405 eV

  energy without entropy =       -0.11530086  energy(sigma->0) =       -0.11486299


--------------------------------------------------------------------------------------------------------




--------------------------------------- Iteration      1(   8)  ---------------------------------------


    POTLOK:  cpu time    0.0476: real time    0.0479
    SETDIJ:  cpu time    0.0789: real time    0.0789
    EDDIAG:  cpu time    0.0346: real time    0.0346
  RMM-DIIS:  cpu time    0.1460: real time    0.1460
    ORTHCH:  cpu time    0.0011: real time    0.0011
       DOS:  cpu time    0.0005: real time    0.0005
    CHARGE:  cpu time    0.0984: real time    0.0984
    MIXING:  cpu time    0.0032: real time    0.0032
    --------------------------------------------
      LOOP:  cpu time    0.4102: real time    0.4106

 eigenvalue-minimisations  :  1107
 total energy-change (2. order) :-0.5206875E-04  (-0.2017039E-04)
 number of electron      18.0000000 magnetization 
 augmentation part        2.9903324 magnetization 

 Broyden mixing:
  rms(total) = 0.82392E-03    rms(broyden)= 0.82283E-03
  rms(prec ) = 0.15370E-02
  weight for this iteration     100.00

 eigenvalues of (default mixing * dielectric matrix)
  average eigenvalue GAMMA=   1.8971
  2.8499  2.2010  0.6406

 Free energy of the ion-electron system (eV)
  ---------------------------------------------------
  alpha Z        PSCENC =        57.85527327
  Ewald energy   TEWEN  =     -1667.69681062
  -Hartree energ DENC   =      -707.88827382
  -exchange      EXHF   =         0.00000000
  -V(xc)+E(xc)   XCENC  =       -67.32336286
  PAW double counting   =      2253.51019978    -2171.25966582
  entropy T*S    EENTRO =         0.00065625
  eigenvalues    EBANDS =      -339.33015364
  atomic energy  EATOM  =      2642.01744135
  Solvation  Ediel_sol  =         0.00000000
  ---------------------------------------------------
  free energy    TOTEN  =        -0.11469612 eV

  energy without entropy =       -0.11535237  energy(sigma->0) =       -0.11491487


--------------------------------------------------------------------------------------------------------




--------------------------------------- Iteration      1(   9)  ---------------------------------------


    POTLOK:  cpu time    0.0508: real time    0.0510
    SETDIJ:  cpu time    0.0856: real time    0.0856
    EDDIAG:  cpu time    0.0368: real time    0.0368
  RMM-DIIS:  cpu time    0.1838: real time    0.1838
    ORTHCH:  cpu time    0.0011: real time    0.0011
       DOS:  cpu time    0.0004: real time    0.0004
    CHARGE:  cpu time    0.1064: real time    0.1064
    MIXING:  cpu time    0.0023: real time    0.0023
    --------------------------------------------
      LOOP:  cpu time    0.4673: real time    0.4675

 eigenvalue-minimisations  :  1287
 total energy-change (2. order) :-0.5260353E-05  (-0.3372811E-05)
 number of electron      18.0000000 magnetization 
 augmentation part        2.9903319 magnetization 

 Broyden mixing:
  rms(total) = 0.59853E-03    rms(broyden)= 0.59845E-03
  rms(prec ) = 0.11339E-02
  weight for this iteration     100.00

 eigenvalues of (default mixing * dielectric matrix)
  average eigenvalue GAMMA=   2.0420
  3.3631  2.4929  1.1057  1.2062

 Free energy of the ion-electron system (eV)
  ---------------------------------------------------
  alpha Z        PSCENC =        57.85527327
  Ewald energy   TEWEN  =     -1667.69681062
  -Hartree energ DENC   =      -707.88599047
  -exchange      EXHF   =         0.00000000
  -V(xc)+E(xc)   XCENC  =       -67.32286300
  PAW double counting   =      2253.84134631    -2171.59493815
  entropy T*S    EENTRO =         0.00065620
  eigenvalues    EBANDS =      -339.32881627
  atomic energy  EATOM  =      2642.01744135
  Solvation  Ediel_sol  =         0.00000000
  ---------------------------------------------------
  free energy    TOTEN  =        -0.11470138 eV

  energy without entropy =       -0.11535758  energy(sigma->0) =       -0.11492011


--------------------------------------------------------------------------------------------------------




--------------------------------------- Iteration      1(  10)  ---------------------------------------


    POTLOK:  cpu time    0.0537: real time    0.0548
    SETDIJ:  cpu time    0.0766: real time    0.0766
    EDDIAG:  cpu time    0.0344: real time    0.0344
  RMM-DIIS:  cpu time    0.1451: real time    0.1451
    ORTHCH:  cpu time    0.0011: real time    0.0011
       DOS:  cpu time    0.0008: real time    0.0008
    CHARGE:  cpu time    0.0921: real time    0.0921
    MIXING:  cpu time    0.0031: real time    0.0031
    --------------------------------------------
      LOOP:  cpu time    0.4069: real time    0.4080

 eigenvalue-minimisations  :  1114
 total energy-change (2. order) :-0.3604248E-05  (-0.5505585E-06)
 number of electron      18.0000000 magnetization 
 augmentation part        2.9904401 magnetization 

 Broyden mixing:
  rms(total) = 0.17424E-03    rms(broyden)= 0.17418E-03
  rms(prec ) = 0.39594E-03
  weight for this iteration     100.00

 eigenvalues of (default mixing * dielectric matrix)
  average eigenvalue GAMMA=   1.8671
  3.1926  2.4531  1.9495  0.8703  0.8703

 Free energy of the ion-electron system (eV)
  ---------------------------------------------------
  alpha Z        PSCENC =        57.85527327
  Ewald energy   TEWEN  =     -1667.69681062
  -Hartree energ DENC   =      -707.88208638
  -exchange      EXHF   =         0.00000000
  -V(xc)+E(xc)   XCENC  =       -67.32147976
  PAW double counting   =      2254.48991767    -2172.24930463
  entropy T*S    EENTRO =         0.00065616
  eigenvalues    EBANDS =      -339.32831203
  atomic energy  EATOM  =      2642.01744135
  Solvation  Ediel_sol  =         0.00000000
  ---------------------------------------------------
  free energy    TOTEN  =        -0.11470498 eV

  energy without entropy =       -0.11536114  energy(sigma->0) =       -0.11492370


--------------------------------------------------------------------------------------------------------




--------------------------------------- Iteration      1(  11)  ---------------------------------------


    POTLOK:  cpu time    0.0489: real time    0.0490
    SETDIJ:  cpu time    0.0817: real time    0.0817
    EDDIAG:  cpu time    0.0352: real time    0.0352
  RMM-DIIS:  cpu time    0.1527: real time    0.1527
    ORTHCH:  cpu time    0.0011: real time    0.0011
       DOS:  cpu time    0.0005: real time    0.0005
    CHARGE:  cpu time    0.1085: real time    0.1085
    MIXING:  cpu time    0.0026: real time    0.0026
    --------------------------------------------
      LOOP:  cpu time    0.4313: real time    0.4314

 eigenvalue-minimisations  :  1073
 total energy-change (2. order) : 0.4248982E-06  (-0.1211870E-06)
 number of electron      18.0000000 magnetization 
 augmentation part        2.9904699 magnetization 

 Broyden mixing:
  rms(total) = 0.74098E-04    rms(broyden)= 0.74015E-04
  rms(prec ) = 0.14011E-03
  weight for this iteration     100.00

 eigenvalues of (default mixing * dielectric matrix)
  average eigenvalue GAMMA=   1.9214
  3.1966  2.4493  2.0228  2.0228  0.9683  0.8687

 Free energy of the ion-electron system (eV)
  ---------------------------------------------------
  alpha Z        PSCENC =        57.85527327
  Ewald energy   TEWEN  =     -1667.69681062
  -Hartree energ DENC   =      -707.87461717
  -exchange      EXHF   =         0.00000000
  -V(xc)+E(xc)   XCENC  =       -67.32186230
  PAW double counting   =      2254.28864490    -2172.04509718
  entropy T*S    EENTRO =         0.00065622
  eigenvalues    EBANDS =      -339.33833302
  atomic energy  EATOM  =      2642.01744135
  Solvation  Ediel_sol  =         0.00000000
  ---------------------------------------------------
  free energy    TOTEN  =        -0.11470456 eV

  energy without entropy =       -0.11536078  energy(sigma->0) =       -0.11492330


--------------------------------------------------------------------------------------------------------




--------------------------------------- Iteration      1(  12)  ---------------------------------------


    POTLOK:  cpu time    0.0507: real time    0.0511
    SETDIJ:  cpu time    0.0826: real time    0.0826
    EDDIAG:  cpu time    0.0357: real time    0.0357
  RMM-DIIS:  cpu time    0.1277: real time    0.1277
    ORTHCH:  cpu time    0.0011: real time    0.0011
       DOS:  cpu time    0.0005: real time    0.0005
    CHARGE:  cpu time    0.0969: real time    0.0969
    MIXING:  cpu time    0.0051: real time    0.0051
    --------------------------------------------
      LOOP:  cpu time    0.4002: real time    0.4006

 eigenvalue-minimisations  :   877
 total energy-change (2. order) : 0.1150247E-06  (-0.1884458E-07)
 number of electron      18.0000000 magnetization 
 augmentation part        2.9904465 magnetization 

 Broyden mixing:
  rms(total) = 0.17630E-04    rms(broyden)= 0.17302E-04
  rms(prec ) = 0.52834E-04
  weight for this iteration     100.00

 eigenvalues of (default mixing * dielectric matrix)
  average eigenvalue GAMMA=   1.8578
  3.2750  2.7026  2.3790  1.8352  0.9997  0.9997  0.8135

 Free energy of the ion-electron system (eV)
  ---------------------------------------------------
  alpha Z        PSCENC =        57.85527327
  Ewald energy   TEWEN  =     -1667.69681062
  -Hartree energ DENC   =      -707.87596317
  -exchange      EXHF   =         0.00000000
  -V(xc)+E(xc)   XCENC  =       -67.32199541
  PAW double counting   =      2254.21182372    -2171.96806589
  entropy T*S    EENTRO =         0.00065623
  eigenvalues    EBANDS =      -339.33706392
  atomic energy  EATOM  =      2642.01744135
  Solvation  Ediel_sol  =         0.00000000
  ---------------------------------------------------
  free energy    TOTEN  =        -0.11470444 eV

  energy without entropy =       -0.11536067  energy(sigma->0) =       -0.11492319


--------------------------------------------------------------------------------------------------------




--------------------------------------- Iteration      1(  13)  ---------------------------------------


    POTLOK:  cpu time    0.0484: real time    0.0488
    SETDIJ:  cpu time    0.0832: real time    0.0832
    EDDIAG:  cpu time    0.0355: real time    0.0355
  RMM-DIIS:  cpu time    0.1023: real time    0.1023
    ORTHCH:  cpu time    0.0011: real time    0.0011
       DOS:  cpu time    0.0005: real time    0.0005
    --------------------------------------------
      LOOP:  cpu time    0.2708: real time    0.2712

 eigenvalue-minimisations  :   699
 total energy-change (2. order) : 0.5410266E-07  (-0.6791029E-08)
 number of electron      18.0000000 magnetization 
 augmentation part        2.9904465 magnetization 

 Free energy of the ion-electron system (eV)
  ---------------------------------------------------
  alpha Z        PSCENC =        57.85527327
  Ewald energy   TEWEN  =     -1667.69681062
  -Hartree energ DENC   =      -707.87418144
  -exchange      EXHF   =         0.00000000
  -V(xc)+E(xc)   XCENC  =       -67.32204898
  PAW double counting   =      2254.18718423    -2171.94304068
  entropy T*S    EENTRO =         0.00065624
  eigenvalues    EBANDS =      -339.33917776
  atomic energy  EATOM  =      2642.01744135
  Solvation  Ediel_sol  =         0.00000000
  ---------------------------------------------------
  free energy    TOTEN  =        -0.11470439 eV

  energy without entropy =       -0.11536063  energy(sigma->0) =       -0.11492314


--------------------------------------------------------------------------------------------------------




 average (electrostatic) potential at core
  the test charge radii are     1.2024
  (the norm of the test charge is              1.0000)
       1-113.2011
 
 
 
 E-fermi :   0.5284     XC(G=0):  -7.7516     alpha+bet : -6.6544


 k-point     1 :       0.0000    0.0000    0.0000
  band No.  band energies     occupation 
      1     -29.1474      2.00000
      2     -29.1474      2.00000
      3     -29.1474      2.00000
      4     -29.1455      2.00000
      5     -29.1455      2.00000
      6     -22.1400      2.00000
      7       0.4911      1.58475
      8       0.4911      1.58475
      9       0.4911      1.58475
     10       2.7464     -0.00000
     11       9.6162      0.00000
     12       9.6162      0.00000
     13       9.6167      0.00000

 k-point     2 :       0.1111   -0.0000   -0.0000
  band No.  band energies     occupation 
      1     -29.1472      2.00000
      2     -29.1471      2.00000
      3     -29.1471      2.00000
      4     -29.1454      2.00000
      5     -29.1454      2.00000
      6     -22.1333      2.00000
      7      -0.0500      2.00000
      8       0.4525      1.95782
      9       0.4525      1.95782
     10       3.3894      0.00000
     11       8.9070      0.00000
     12       9.7343      0.00000
     13       9.7343      0.00000

 k-point     3 :       0.2222   -0.0000   -0.0000
  band No.  band energies     occupation 
      1     -29.1468      2.00000
      2     -29.1468      2.00000
      3     -29.1468      2.00000
      4     -29.1449      2.00000
      5     -29.1449      2.00000
      6     -22.1167      2.00000
      7      -0.8962      2.00000
      8       0.3576      2.03643
      9       0.3576      2.03643
     10       4.4003      0.00000
     11       8.6354      0.00000
     12       9.7652      0.00000
     13       9.7652      0.00000

 k-point     4 :       0.3333   -0.0000   -0.0000
  band No.  band energies     occupation 
      1     -29.1469      2.00000
      2     -29.1469      2.00000
      3     -29.1464      2.00000
      4     -29.1438      2.00000
      5     -29.1438      2.00000
      6     -22.0976      2.00000
      7      -1.5542      2.00000
      8       0.2547      2.00075
      9       0.2547      2.00075
     10       4.9794      0.00000
     11       9.2413      0.00000
     12       9.4544      0.00000
     13       9.4545      0.00000

 k-point     5 :       0.4444   -0.0000   -0.0000
  band No.  band energies     occupation 
      1     -29.1470      2.00000
      2     -29.1470      2.00000
      3     -29.1461      2.00000
      4     -29.1430      2.00000
      5     -29.1430      2.00000
      6     -22.0850      2.00000
      7      -1.9032      2.00000
      8       0.1900      2.00002
      9       0.1900      2.00002
     10       5.1212      0.00000
     11       9.2295      0.00000
     12       9.2295      0.00000
     13       9.5869      0.00000

 k-point     6 :       0.1111    0.1111   -0.0000
  band No.  band energies     occupation 
      1     -29.1476      2.00000
      2     -29.1468      2.00000
      3     -29.1468      2.00000
      4     -29.1457      2.00000
      5     -29.1453      2.00000
      6     -22.1311      2.00000
      7      -0.0799      2.00000
      8       0.3693      2.04701
      9       0.3693      2.04701
     10       3.6082      0.00000
     11       8.6270      0.00000
     12       9.8947      0.00000
     13       9.8980      0.00000

 k-point     7 :       0.2222    0.1111   -0.0000
  band No.  band energies     occupation 
      1     -29.1475      2.00000
      2     -29.1463      2.00000
      3     -29.1463      2.00000
      4     -29.1455      2.00000
      5     -29.1447      2.00000
      6     -22.1179      2.00000
      7      -0.7141      2.00000
      8       0.2443      2.00044
      9       0.2788      2.00236
     10       4.5024      0.00000
     11       8.2466      0.00000
     12       9.3806      0.00000
     13      10.1130      0.00000

 k-point     8 :       0.3333    0.1111   -0.0000
  band No.  band energies     occupation 
      1     -29.1471      2.00000
      2     -29.1463      2.00000
      3     -29.1463      2.00000
      4     -29.1446      2.00000
      5     -29.1437      2.00000
      6     -22.0995      2.00000
      7      -1.3556      2.00000
      8       0.1377      2.00000
      9       0.1398      2.00000
     10       5.2651      0.00000
     11       8.5345      0.00000
     12       8.7495      0.00000
     13       9.9275      0.00000

 k-point     9 :       0.4444    0.1111   -0.0000
  band No.  band energies     occupation 
      1     -29.1471      2.00000
      2     -29.1465      2.00000
      3     -29.1460      2.00000
      4     -29.1436      2.00000
      5     -29.1429      2.00000
      6     -22.0848      2.00000
      7      -1.7630      2.00000
      8      -0.0131      2.00000
      9       0.0949      2.00000
     10       5.5423      0.00000
     11       8.3785      0.00000
     12       9.6053      0.00000
     13       9.6647      0.00000

 k-point    10 :      -0.4444    0.1111    0.0000
  band No.  band energies     occupation 
      1     -29.1470      2.00000
      2     -29.1466      2.00000
      3     -29.1458      2.00000
      4     -29.1431      2.00000
      5     -29.1430      2.00000
      6     -22.0806      2.00000
      7      -1.8652      2.00000
      8      -0.1085      2.00000
      9       0.1325      2.00000
     10       5.5873      0.00000
     11       8.3226      0.00000
     12       9.4350      0.00000
     13      10.3882      0.00000

 k-point    11 :      -0.3333    0.1111    0.0000
  band No.  band energies     occupation 
      1     -29.1469      2.00000
      2     -29.1465      2.00000
      3     -29.1461      2.00000
      4     -29.1439      2.00000
      5     -29.1433      2.00000
      6     -22.0890      2.00000
      7      -1.6516      2.00000
      8      -0.1022      2.00000
      9       0.2356      2.00028
     10       5.5062      0.00000
     11       8.5647      0.00000
     12       9.3988      0.00000
     13       9.4973      0.00000

 k-point    12 :      -0.2222    0.1111    0.0000
  band No.  band energies     occupation 
      1     -29.1467      2.00000
      2     -29.1466      2.00000
      3     -29.1464      2.00000
      4     -29.1451      2.00000
      5     -29.1440      2.00000
      6     -22.1059      2.00000
      7      -1.1627      2.00000
      8       0.0169      2.00000
      9       0.3610      2.03937
     10       5.0506      0.00000
     11       8.5165      0.00000
     12       9.0749      0.00000
     13       9.7980      0.00000

 k-point    13 :      -0.1111    0.1111    0.0000
  band No.  band energies     occupation 
      1     -29.1471      2.00000
      2     -29.1468      2.00000
      3     -29.1467      2.00000
      4     -29.1456      2.00000
      5     -29.1449      2.00000
      6     -22.1234      2.00000
      7      -0.5278      2.00000
      8       0.2335      2.00025
      9       0.4489      1.97729
     10       4.1292      0.00000
     11       8.5148      0.00000
     12       9.6740      0.00000
     13       9.8902      0.00000

 k-point    14 :       0.2222    0.2222    0.0000
  band No.  band energies     occupation 
      1     -29.1480      2.00000
      2     -29.1461      2.00000
      3     -29.1453      2.00000
      4     -29.1453      2.00000
      5     -29.1446      2.00000
      6     -22.1090      2.00000
      7      -0.8801      2.00000
      8       0.0837      2.00000
      9       0.0837      2.00000
     10       5.0876      0.00000
     11       7.7107      0.00000
     12       8.9120      0.00000
     13      10.6250      0.00000

 k-point    15 :       0.3333    0.2222   -0.0000
  band No.  band energies     occupation 
      1     -29.1480      2.00000
      2     -29.1463      2.00000
      3     -29.1450      2.00000
      4     -29.1444      2.00000
      5     -29.1436      2.00000
      6     -22.0941      2.00000
      7      -1.2747      2.00000
      8      -0.1040      2.00000
      9      -0.0474      2.00000
     10       5.7284      0.00000
     11       7.5888      0.00000
     12       8.5289      0.00000
     13      10.7955      0.00000

 k-point    16 :       0.4444    0.2222   -0.0000
  band No.  band energies     occupation 
      1     -29.1475      2.00000
      2     -29.1460      2.00000
      3     -29.1452      2.00000
      4     -29.1439      2.00000
      5     -29.1429      2.00000
      6     -22.0801      2.00000
      7      -1.5713      2.00000
      8      -0.3816      2.00000
      9      -0.0953      2.00000
     10       6.1221      0.00000
     11       8.0161      0.00000
     12       8.4468      0.00000
     13      10.4779      0.00000

 k-point    17 :      -0.4444    0.2222    0.0000
  band No.  band energies     occupation 
      1     -29.1473      2.00000
      2     -29.1454      2.00000
      3     -29.1453      2.00000
      4     -29.1438      2.00000
      5     -29.1429      2.00000
      6     -22.0737      2.00000
      7      -1.6593      2.00000
      8      -0.6345      2.00000
      9      -0.0423      2.00000
     10       6.3246      0.00000
     11       7.9399      0.00000
     12       9.6061      0.00000
     13      10.1663      0.00000

 k-point    18 :      -0.3333    0.2222    0.0000
  band No.  band energies     occupation 
      1     -29.1470      2.00000
      2     -29.1454      2.00000
      3     -29.1453      2.00000
      4     -29.1439      2.00000
      5     -29.1436      2.00000
      6     -22.0779      2.00000
      7      -1.5618      2.00000
      8      -0.6998      2.00000
      9       0.0920      2.00000
     10       6.4310      0.00000
     11       7.9560      0.00000
     12       9.3788      0.00000
     13      10.0087      0.00000

 k-point    19 :      -0.2222    0.2222    0.0000
  band No.  band energies     occupation 
      1     -29.1468      2.00000
      2     -29.1460      2.00000
      3     -29.1454      2.00000
      4     -29.1452      2.00000
      5     -29.1435      2.00000
      6     -22.0906      2.00000
      7      -1.3843      2.00000
      8      -0.4523      2.00000
      9       0.2523      2.00067
     10       6.0077      0.00000
     11       8.3120      0.00000
     12       8.5501      0.00000
     13       9.9823      0.00000

 k-point    20 :       0.3333    0.3333    0.0000
  band No.  band energies     occupation 
      1     -29.1485      2.00000
      2     -29.1465      2.00000
      3     -29.1438      2.00000
      4     -29.1435      2.00000
      5     -29.1435      2.00000
      6     -22.0836      2.00000
      7      -1.4425      2.00000
      8      -0.2092      2.00000
      9      -0.2092      2.00000
     10       5.7425      0.00000
     11       7.0932      0.00000
     12       9.1483      0.00000
     13      11.5946      0.00000

 k-point    21 :       0.4444    0.3333   -0.0000
  band No.  band energies     occupation 
      1     -29.1484      2.00000
      2     -29.1466      2.00000
      3     -29.1439      2.00000
      4     -29.1430      2.00000
      5     -29.1427      2.00000
      6     -22.0731      2.00000
      7      -1.5937      2.00000
      8      -0.4436      2.00000
      9      -0.2817      2.00000
     10       5.8371      0.00000
     11       7.1599      0.00000
     12       9.5289      0.00000
     13      11.6314      0.00000

 k-point    22 :      -0.4444    0.3333    0.0000
  band No.  band energies     occupation 
      1     -29.1478      2.00000
      2     -29.1460      2.00000
      3     -29.1441      2.00000
      4     -29.1432      2.00000
      5     -29.1427      2.00000
      6     -22.0675      2.00000
      7      -1.5369      2.00000
      8      -0.8577      2.00000
      9      -0.2389      2.00000
     10       6.1115      0.00000
     11       7.8687      0.00000
     12       9.5380      0.00000
     13      11.2299      0.00000

 k-point    23 :      -0.3333    0.3333    0.0000
  band No.  band energies     occupation 
      1     -29.1473      2.00000
      2     -29.1448      2.00000
      3     -29.1444      2.00000
      4     -29.1441      2.00000
      5     -29.1435      2.00000
      6     -22.0694      2.00000
      7      -1.2856      2.00000
      8      -1.2177      2.00000
      9      -0.0956      2.00000
     10       6.4615      0.00000
     11       8.4031      0.00000
     12       9.7438      0.00000
     13      10.0954      0.00000

 k-point    24 :       0.4444    0.4444    0.0000
  band No.  band energies     occupation 
      1     -29.1488      2.00000
      2     -29.1469      2.00000
      3     -29.1433      2.00000
      4     -29.1424      2.00000
      5     -29.1424      2.00000
      6     -22.0670      2.00000
      7      -1.7193      2.00000
      8      -0.3856      2.00000
      9      -0.3856      2.00000
     10       5.5036      0.00000
     11       6.7835      0.00000
     12      11.0225      0.00000
     13      12.4754      0.00000

 k-point    25 :      -0.4444    0.4444    0.0000
  band No.  band energies     occupation 
      1     -29.1485      2.00000
      2     -29.1468      2.00000
      3     -29.1434      2.00000
      4     -29.1425      2.00000
      5     -29.1424      2.00000
      6     -22.0648      2.00000
      7      -1.6905      2.00000
      8      -0.5781      2.00000
      9      -0.3695      2.00000
     10       5.6673      0.00000
     11       7.0139      0.00000
     12      11.3751      0.00000
     13      11.4082      0.00000

 k-point    26 :       0.3333    0.2222    0.1111
  band No.  band energies     occupation 
      1     -29.1474      2.00000
      2     -29.1463      2.00000
      3     -29.1455      2.00000
      4     -29.1453      2.00000
      5     -29.1440      2.00000
      6     -22.1038      2.00000
      7      -1.1012      2.00000
      8      -0.0809      2.00000
      9       0.2269      2.00017
     10       5.3380      0.00000
     11       8.0192      0.00000
     12       8.6935      0.00000
     13      10.5555      0.00000

 k-point    27 :       0.4444    0.2222    0.1111
  band No.  band energies     occupation 
      1     -29.1469      2.00000
      2     -29.1464      2.00000
      3     -29.1455      2.00000
      4     -29.1443      2.00000
      5     -29.1433      2.00000
      6     -22.0876      2.00000
      7      -1.4737      2.00000
      8      -0.3446      2.00000
      9       0.1075      2.00000
     10       6.0469      0.00000
     11       8.1193      0.00000
     12       8.4265      0.00000
     13      10.2160      0.00000

 k-point    28 :      -0.4444    0.2222    0.1111
  band No.  band energies     occupation 
      1     -29.1469      2.00000
      2     -29.1462      2.00000
      3     -29.1452      2.00000
      4     -29.1438      2.00000
      5     -29.1430      2.00000
      6     -22.0771      2.00000
      7      -1.6935      2.00000
      8      -0.4712      2.00000
      9       0.0029      2.00000
     10       6.2843      0.00000
     11       7.8027      0.00000
     12       9.5979      0.00000
     13      10.0318      0.00000

 k-point    29 :       0.4444    0.3333    0.1111
  band No.  band energies     occupation 
      1     -29.1478      2.00000
      2     -29.1464      2.00000
      3     -29.1447      2.00000
      4     -29.1435      2.00000
      5     -29.1432      2.00000
      6     -22.0814      2.00000
      7      -1.4674      2.00000
      8      -0.3985      2.00000
      9      -0.1485      2.00000
     10       6.1512      0.00000
     11       7.5349      0.00000
     12       8.4689      0.00000
     13      11.3133      0.00000

 k-point    30 :      -0.4444    0.3333    0.1111
  band No.  band energies     occupation 
      1     -29.1472      2.00000
      2     -29.1461      2.00000
      3     -29.1448      2.00000
      4     -29.1435      2.00000
      5     -29.1428      2.00000
      6     -22.0716      2.00000
      7      -1.5264      2.00000
      8      -0.7177      2.00000
      9      -0.2442      2.00000
     10       6.5409      0.00000
     11       7.9773      0.00000
     12       8.4473      0.00000
     13      11.0275      0.00000

 k-point    31 :      -0.3333    0.3333    0.1111
  band No.  band energies     occupation 
      1     -29.1469      2.00000
      2     -29.1455      2.00000
      3     -29.1445      2.00000
      4     -29.1443      2.00000
      5     -29.1429      2.00000
      6     -22.0694      2.00000
      7      -1.4480      2.00000
      8      -0.9680      2.00000
      9      -0.2017      2.00000
     10       6.8615      0.00000
     11       7.8293      0.00000
     12       9.4391      0.00000
     13      10.0054      0.00000

 k-point    32 :      -0.2222    0.3333    0.1111
  band No.  band energies     occupation 
      1     -29.1467      2.00000
      2     -29.1460      2.00000
      3     -29.1451      2.00000
      4     -29.1436      2.00000
      5     -29.1436      2.00000
      6     -22.0757      2.00000
      7      -1.4567      2.00000
      8      -0.8166      2.00000
      9      -0.0483      2.00000
     10       6.9391      0.00000
     11       7.6356      0.00000
     12       8.6326      0.00000
     13      10.6382      0.00000

 k-point    33 :      -0.4444    0.4444    0.1111
  band No.  band energies     occupation 
      1     -29.1481      2.00000
      2     -29.1466      2.00000
      3     -29.1438      2.00000
      4     -29.1430      2.00000
      5     -29.1424      2.00000
      6     -22.0667      2.00000
      7      -1.6139      2.00000
      8      -0.5879      2.00000
      9      -0.4241      2.00000
     10       5.9788      0.00000
     11       7.2701      0.00000
     12       9.8568      0.00000
     13      11.5058      0.00000

 k-point    34 :      -0.3333    0.4444    0.1111
  band No.  band energies     occupation 
      1     -29.1473      2.00000
      2     -29.1460      2.00000
      3     -29.1439      2.00000
      4     -29.1439      2.00000
      5     -29.1424      2.00000
      6     -22.0652      2.00000
      7      -1.4495      2.00000
      8      -0.9444      2.00000
      9      -0.3890      2.00000
     10       6.4261      0.00000
     11       7.9698      0.00000
     12       9.4643      0.00000
     13      10.1478      0.00000

 k-point    35 :      -0.3333    0.4444    0.2222
  band No.  band energies     occupation 
      1     -29.1462      2.00000
      2     -29.1461      2.00000
      3     -29.1450      2.00000
      4     -29.1440      2.00000
      5     -29.1424      2.00000
      6     -22.0660      2.00000
      7      -1.3277      2.00000
      8      -1.0298      2.00000
      9      -0.4516      2.00000
     10       7.1695      0.00000
     11       8.0943      0.00000
     12       8.5317      0.00000
     13       9.7888      0.00000


--------------------------------------------------------------------------------------------------------


 soft charge-density along one line, spin component           1
         0         1         2         3         4         5         6         7         8         9
 total charge-density along one line
 
 pseudopotential strength for first ion, spin component:           1
-22.869  -0.000   0.000   0.000   0.000   8.861   0.000  -0.000
 -0.000 -22.869  -0.000  -0.000   0.000   0.000   8.861   0.000
  0.000  -0.000 -22.869  -0.000   0.000  -0.000   0.000   8.861
  0.000  -0.000  -0.000 -22.869  -0.000  -0.000   0.000   0.000
  0.000   0.000   0.000  -0.000 -22.869  -0.000  -0.000  -0.000
  8.861   0.000  -0.000  -0.000  -0.000  19.824  -0.000   0.000
  0.000   8.861   0.000   0.000  -0.000  -0.000  19.824   0.000
 -0.000   0.000   8.861   0.000  -0.000   0.000   0.000  19.824
 -0.000   0.000   0.000   8.861   0.000   0.000   0.000   0.000
 -0.000  -0.000  -0.000   0.000   8.861  -0.000   0.000   0.000
  0.000   0.000  -0.000   0.000   0.000   0.000   0.000  -0.000
  0.000   0.000  -0.000   0.000   0.000  -0.000  -0.000   0.000
  0.000   0.000   0.000  -0.000   0.000   0.000   0.000   0.000
 -0.000  -0.000   0.000   0.000   0.000  -0.000  -0.000   0.000
 -0.000  -0.000  -0.000   0.000   0.000   0.000  -0.000  -0.000
  0.000   0.000   0.000  -0.000   0.000   0.000   0.000   0.000
 -0.000  -0.000   0.000   0.000   0.000  -0.000  -0.000   0.000
 -0.000  -0.000  -0.000   0.000   0.000   0.000  -0.000  -0.000
 total augmentation occupancy for first ion, spin component:           1
  2.000   0.000  -0.000   0.000   0.000   0.000   0.000  -0.000  -0.000   0.000  -0.000   0.000   0.000   0.000   0.000   0.000
  0.000   2.000  -0.000  -0.000   0.000   0.000   0.000   0.000   0.000  -0.000  -0.000   0.000   0.000   0.000   0.000   0.000
 -0.000  -0.000   2.000   0.000  -0.000  -0.000   0.000   0.000   0.000  -0.000   0.000  -0.000   0.000   0.000   0.000   0.000
  0.000  -0.000   0.000   2.000   0.000  -0.000   0.000   0.000   0.000   0.000  -0.000   0.000   0.000   0.000   0.000   0.000
  0.000   0.000  -0.000   0.000   2.000   0.000  -0.000  -0.000   0.000   0.000  -0.000  -0.000   0.000   0.000   0.000   0.000
  0.000   0.000  -0.000  -0.000   0.000   0.000   0.000  -0.000   0.000   0.000   0.000  -0.000   0.000   0.000   0.000   0.000
  0.000   0.000   0.000  -0.000  -0.000   0.000   0.000  -0.000  -0.000   0.000   0.000  -0.000   0.000   0.000   0.000   0.000
 -0.000   0.000   0.000   0.000  -0.000   0.000  -0.000   0.000   0.000  -0.000  -0.000   0.000   0.000   0.000   0.000   0.000
 -0.000   0.000   0.000   0.000   0.000   0.000  -0.000   0.000   0.000   0.000   0.000   0.000   0.000   0.000   0.000   0.000
  0.000  -0.000  -0.000   0.000   0.000   0.000   0.000  -0.000   0.000   0.000  -0.000  -0.000   0.000   0.000   0.000   0.000
 -0.000  -0.000   0.000  -0.000  -0.000   0.000   0.000  -0.000  -0.000   0.000   1.997  -0.010   0.000   0.000   0.000   0.000
  0.000   0.000  -0.000   0.000  -0.000   0.000  -0.000   0.000   0.000  -0.000  -0.010   0.001   0.000   0.000   0.000   0.000
  0.000   0.000   0.000   0.000   0.000   0.000   0.000   0.000   0.000   0.000   0.000   0.000   1.977  -0.000   0.000   0.006
  0.000   0.000   0.000   0.000   0.000   0.000   0.000   0.000   0.000   0.000   0.000   0.000  -0.000   1.977   0.000  -0.000
  0.000   0.000   0.000   0.000   0.000   0.000   0.000   0.000   0.000   0.000   0.000   0.000   0.000   0.000   1.977   0.000
  0.000   0.000   0.000   0.000   0.000   0.000   0.000   0.000   0.000   0.000   0.000   0.000   0.006  -0.000   0.000   0.000
  0.000   0.000   0.000   0.000   0.000   0.000   0.000   0.000   0.000   0.000   0.000   0.000  -0.000   0.006   0.000  -0.000
  0.000   0.000   0.000   0.000   0.000   0.000   0.000   0.000   0.000   0.000   0.000   0.000   0.000   0.000   0.006   0.000


------------------------ aborting loop because EDIFF is reached ----------------------------------------


    CHARGE:  cpu time    0.0981: real time    0.0981
    FORLOC:  cpu time    0.0030: real time    0.0030
    FORNL :  cpu time    0.4995: real time    0.4995
    STRESS:  cpu time    1.6687: real time    1.6694
    FORCOR:  cpu time    0.0536: real time    0.0536
    FORHAR:  cpu time    0.0107: real time    0.0107
    MIXING:  cpu time    0.0469: real time    0.0469
    OFIELD:  cpu time    0.0001: real time    0.0001

  FORCE on cell =-STRESS in cart. coord.  units (eV):
  Direction    XX          YY          ZZ          XY          YZ          ZX
  --------------------------------------------------------------------------------------
  Alpha Z    57.85527    57.85527    57.85527
  Ewald    -555.89895  -555.89895  -555.89895     0.00000    -0.00000     0.00000
  Hartree   235.95813   235.95813   235.95813     0.00000    -0.00000     0.00000
  E(xc)    -108.83789  -108.83789  -108.83789    -0.00000    -0.00000    -0.00000
  Local    -193.96375  -193.96376  -193.96377     0.00001     0.00000     0.00001
  n-local    95.88242    99.18840   101.31456     1.18476    -0.29704     3.41046
  augment    79.48841    79.48842    79.48842    -0.00001    -0.00000    -0.00001
  Kinetic   384.16153   386.85548   388.63951     1.20399     0.10628     2.94804
  Fock        0.00000     0.00000     0.00000     0.00000     0.00000     0.00000
  -------------------------------------------------------------------------------------
  Total      -0.05148    -0.05148    -0.05148     0.00000     0.00000     0.00000
  in kB      -1.25081    -1.25081    -1.25081     0.00000     0.00000     0.00000
  external pressure =       -1.25 kB  Pullay stress =        0.00 kB


 VOLUME and BASIS-vectors are now :
 -----------------------------------------------------------------------------
  energy-cutoff  :      600.00
  volume of cell :       65.94
      direct lattice vectors                 reciprocal lattice vectors
     4.534874440  0.000000000  0.000000000     0.220513272 -0.127313397 -0.090024166
     2.267437220  3.927316468 -0.000000000     0.000000000  0.254626794 -0.090024166
     2.267437220  1.309105489  3.702709475    -0.000000000  0.000000000  0.270072499

  length of vectors
     4.534874440  4.534874440  4.534874440     0.270072499  0.270072499  0.270072499


 FORCES acting on ions
    electron-ion (+dipol)            ewald-force                    non-local-force                 convergence-correction
 -----------------------------------------------------------------------------------------------
   -.351E-13 0.679E-14 -.682E-13   -.159E-14 -.732E-17 -.150E-15   0.000E+00 -.424E-21 0.000E+00   -.387E-13 0.193E-13 -.139E-13
 -----------------------------------------------------------------------------------------------
   -.351E-13 0.679E-14 -.682E-13   -.159E-14 -.732E-17 -.150E-15   0.000E+00 -.424E-21 0.000E+00   -.387E-13 0.193E-13 -.139E-13
 
 
 POSITION                                       TOTAL-FORCE (eV/Angst)
 -----------------------------------------------------------------------------------
      0.00000      0.00000      0.00000        -0.000000      0.000000      0.000000
 -----------------------------------------------------------------------------------
    total drift:                               -0.000000      0.000000     -0.000000


--------------------------------------------------------------------------------------------------------



  FREE ENERGIE OF THE ION-ELECTRON SYSTEM (eV)
  ---------------------------------------------------
  free  energy   TOTEN  =        -0.11470439 eV

  energy  without entropy=       -0.11536063  energy(sigma->0) =       -0.11492314
 


--------------------------------------------------------------------------------------------------------


    POTLOK:  cpu time    0.1458: real time    0.1458


--------------------------------------------------------------------------------------------------------


     LOOP+:  cpu time    7.0142: real time    7.0265
    4ORBIT:  cpu time    0.0000: real time    0.0000

 total amount of memory used by VASP MPI-rank0    56218. kBytes
=======================================================================

   base      :      30000. kBytes
   nonl-proj :       2831. kBytes
   fftplans  :      14132. kBytes
   grid      :       5033. kBytes
   one-center:         15. kBytes
   wavefun   :       4207. kBytes
 
  
  
 General timing and accounting informations for this job:
 ========================================================
  
                  Total CPU time used (sec):        8.119
                            User time (sec):        6.675
                          System time (sec):        1.443
                         Elapsed time (sec):        8.226
  
                   Maximum memory used (kb):      101464.
                   Average memory used (kb):           0.
  
                          Minor page faults:       412350
                          Major page faults:            0
                 Voluntary context switches:         1170
