<?xml version="1.0" encoding="ISO-8859-1"?>
<modeling>
 <generator>
  <i name="program" type="string">vasp </i>
  <i name="version" type="string">5.4.4.18Apr17-6-g9f103f2a35  </i>
  <i name="subversion" type="string">(build Nov 03 2018 10:20:46) complex            parallel </i>
  <i name="platform" type="string">LinuxIFC </i>
  <i name="date" type="string">2018 12 10 </i>
  <i name="time" type="string">10:33:36 </i>
 </generator>
 <incar>
  <i type="string" name="SYSTEM">   Og_FCC</i>
  <i type="string" name="PREC">accurate</i>
  <i type="string" name="ALGO">   EXACT</i>
  <i type="logical" name="ADDGRID"> T  </i>
  <i type="logical" name="LSORBIT"> T  </i>
  <i type="int" name="ISPIN">     1</i>
  <i type="int" name="MAXMIX">    50</i>
  <i type="int" name="NELM">    50</i>
  <i type="int" name="NELMDL">    -5</i>
  <i type="int" name="NELMIN">     2</i>
  <i type="int" name="IBRION">    -1</i>
  <i type="int" name="NFREE">     5</i>
  <i name="EDIFF">      0.00000001</i>
  <i name="EDIFFG">      0.00001000</i>
  <i type="int" name="NSW">     1</i>
  <i type="int" name="ISIF">     3</i>
  <i type="int" name="ISYM">     0</i>
  <i name="SYMPREC">      0.00000010</i>
  <i name="ENCUT">    300.00000000</i>
  <i type="int" name="NBANDS">   196</i>
  <i name="POTIM">      0.10000000</i>
  <i type="logical" name="LREAL"> F  </i>
  <i type="int" name="ISMEAR">     0</i>
  <i name="SIGMA">      0.00100000</i>
  <i type="int" name="NWRITE">     2</i>
  <i type="logical" name="LWAVE"> T  </i>
  <i type="logical" name="LCHARG"> F  </i>
  <i type="logical" name="LVTOT"> F  </i>
  <i type="logical" name="LOPTICS"> T  </i>
  <i type="logical" name="GGA_COMPAT"> F  </i>
  <v type="int" name="KPOINT_BSE">    -1     0     0     0</v>
  <i type="int" name="NELM">    50</i>
  <i type="string" name="GGA"> PE</i>
 </incar>
 <structure name="primitive_cell" >
  <crystal>
   <varray name="basis" >
    <v>       4.39635018       0.00000000       0.00000000 </v>
    <v>       2.19817509       3.80735094      -0.00000000 </v>
    <v>       2.19817509       1.26911698       3.58960489 </v>
   </varray>
   <i name="volume">     60.08441465 </i>
   <varray name="rec_basis" >
    <v>       0.22746141      -0.13132490      -0.09286073 </v>
    <v>       0.00000000       0.26264981      -0.09286073 </v>
    <v>      -0.00000000       0.00000000       0.27858219 </v>
   </varray>
  </crystal>
  <varray name="positions" >
   <v>       0.00000000       0.00000000       0.00000000 </v>
  </varray>
 </structure>
 <varray name="primitive_index" >
  <v type="int" >        1 </v>
 </varray>
 <kpoints>
  <generation param="Gamma">
   <v type="int" name="divisions">       7        7        7 </v>
   <v name="usershift">      0.00000000       0.00000000       0.00000000 </v>
   <v name="genvec1">      0.14285714      -0.00000000      -0.00000000 </v>
   <v name="genvec2">      0.00000000       0.14285714       0.00000000 </v>
   <v name="genvec3">      0.00000000      -0.00000000       0.14285714 </v>
   <v name="shift">      0.00000000       0.00000000       0.00000000 </v>
  </generation>
  <varray name="kpointlist" >
   <v>       0.00000000       0.00000000       0.00000000 </v>
   <v>       0.14285714      -0.00000000       0.00000000 </v>
   <v>       0.28571429       0.00000000       0.00000000 </v>
   <v>       0.42857143       0.00000000       0.00000000 </v>
   <v>      -0.42857143      -0.00000000      -0.00000000 </v>
   <v>      -0.28571429      -0.00000000      -0.00000000 </v>
   <v>      -0.14285714       0.00000000       0.00000000 </v>
   <v>       0.00000000       0.14285714       0.00000000 </v>
   <v>       0.14285714       0.14285714       0.00000000 </v>
   <v>       0.28571429       0.14285714       0.00000000 </v>
   <v>       0.42857143       0.14285714       0.00000000 </v>
   <v>      -0.42857143       0.14285714      -0.00000000 </v>
   <v>      -0.28571429       0.14285714      -0.00000000 </v>
   <v>      -0.14285714       0.14285714      -0.00000000 </v>
   <v>       0.00000000       0.28571429      -0.00000000 </v>
   <v>       0.14285714       0.28571429       0.00000000 </v>
   <v>       0.28571429       0.28571429       0.00000000 </v>
   <v>       0.42857143       0.28571429       0.00000000 </v>
   <v>      -0.42857143       0.28571429      -0.00000000 </v>
   <v>      -0.28571429       0.28571429       0.00000000 </v>
   <v>      -0.14285714       0.28571429       0.00000000 </v>
   <v>       0.00000000       0.42857143      -0.00000000 </v>
   <v>       0.14285714       0.42857143      -0.00000000 </v>
   <v>       0.28571429       0.42857143       0.00000000 </v>
   <v>       0.42857143       0.42857143      -0.00000000 </v>
   <v>      -0.42857143       0.42857143      -0.00000000 </v>
   <v>      -0.28571429       0.42857143      -0.00000000 </v>
   <v>      -0.14285714       0.42857143      -0.00000000 </v>
   <v>       0.00000000      -0.42857143       0.00000000 </v>
   <v>       0.14285714      -0.42857143       0.00000000 </v>
   <v>       0.28571429      -0.42857143       0.00000000 </v>
   <v>       0.42857143      -0.42857143       0.00000000 </v>
   <v>      -0.42857143      -0.42857143       0.00000000 </v>
   <v>      -0.28571429      -0.42857143       0.00000000 </v>
   <v>      -0.14285714      -0.42857143       0.00000000 </v>
   <v>      -0.00000000      -0.28571429       0.00000000 </v>
   <v>       0.14285714      -0.28571429      -0.00000000 </v>
   <v>       0.28571429      -0.28571429      -0.00000000 </v>
   <v>       0.42857143      -0.28571429       0.00000000 </v>
   <v>      -0.42857143      -0.28571429      -0.00000000 </v>
   <v>      -0.28571429      -0.28571429       0.00000000 </v>
   <v>      -0.14285714      -0.28571429      -0.00000000 </v>
   <v>       0.00000000      -0.14285714       0.00000000 </v>
   <v>       0.14285714      -0.14285714       0.00000000 </v>
   <v>       0.28571429      -0.14285714       0.00000000 </v>
   <v>       0.42857143      -0.14285714       0.00000000 </v>
   <v>      -0.42857143      -0.14285714       0.00000000 </v>
   <v>      -0.28571429      -0.14285714      -0.00000000 </v>
   <v>      -0.14285714      -0.14285714       0.00000000 </v>
   <v>      -0.00000000       0.00000000       0.14285714 </v>
   <v>       0.14285714      -0.00000000       0.14285714 </v>
   <v>       0.28571429      -0.00000000       0.14285714 </v>
   <v>       0.42857143      -0.00000000       0.14285714 </v>
   <v>      -0.42857143      -0.00000000       0.14285714 </v>
   <v>      -0.28571429      -0.00000000       0.14285714 </v>
   <v>      -0.14285714      -0.00000000       0.14285714 </v>
   <v>      -0.00000000       0.14285714       0.14285714 </v>
   <v>       0.14285714       0.14285714       0.14285714 </v>
   <v>       0.28571429       0.14285714       0.14285714 </v>
   <v>       0.42857143       0.14285714       0.14285714 </v>
   <v>      -0.42857143       0.14285714       0.14285714 </v>
   <v>      -0.28571429       0.14285714       0.14285714 </v>
   <v>      -0.14285714       0.14285714       0.14285714 </v>
   <v>      -0.00000000       0.28571429       0.14285714 </v>
   <v>       0.14285714       0.28571429       0.14285714 </v>
   <v>       0.28571429       0.28571429       0.14285714 </v>
   <v>       0.42857143       0.28571429       0.14285714 </v>
   <v>      -0.42857143       0.28571429       0.14285714 </v>
   <v>      -0.28571429       0.28571429       0.14285714 </v>
   <v>      -0.14285714       0.28571429       0.14285714 </v>
   <v>      -0.00000000       0.42857143       0.14285714 </v>
   <v>       0.14285714       0.42857143       0.14285714 </v>
   <v>       0.28571429       0.42857143       0.14285714 </v>
   <v>       0.42857143       0.42857143       0.14285714 </v>
   <v>      -0.42857143       0.42857143       0.14285714 </v>
   <v>      -0.28571429       0.42857143       0.14285714 </v>
   <v>      -0.14285714       0.42857143       0.14285714 </v>
   <v>      -0.00000000      -0.42857143       0.14285714 </v>
   <v>       0.14285714      -0.42857143       0.14285714 </v>
   <v>       0.28571429      -0.42857143       0.14285714 </v>
   <v>       0.42857143      -0.42857143       0.14285714 </v>
   <v>      -0.42857143      -0.42857143       0.14285714 </v>
   <v>      -0.28571429      -0.42857143       0.14285714 </v>
   <v>      -0.14285714      -0.42857143       0.14285714 </v>
   <v>      -0.00000000      -0.28571429       0.14285714 </v>
   <v>       0.14285714      -0.28571429       0.14285714 </v>
   <v>       0.28571429      -0.28571429       0.14285714 </v>
   <v>       0.42857143      -0.28571429       0.14285714 </v>
   <v>      -0.42857143      -0.28571429       0.14285714 </v>
   <v>      -0.28571429      -0.28571429       0.14285714 </v>
   <v>      -0.14285714      -0.28571429       0.14285714 </v>
   <v>      -0.00000000      -0.14285714       0.14285714 </v>
   <v>       0.14285714      -0.14285714       0.14285714 </v>
   <v>       0.28571429      -0.14285714       0.14285714 </v>
   <v>       0.42857143      -0.14285714       0.14285714 </v>
   <v>      -0.42857143      -0.14285714       0.14285714 </v>
   <v>      -0.28571429      -0.14285714       0.14285714 </v>
   <v>      -0.14285714      -0.14285714       0.14285714 </v>
   <v>       0.00000000       0.00000000       0.28571429 </v>
   <v>       0.14285714       0.00000000       0.28571429 </v>
   <v>       0.28571429      -0.00000000       0.28571429 </v>
   <v>       0.42857143      -0.00000000       0.28571429 </v>
   <v>      -0.42857143      -0.00000000       0.28571429 </v>
   <v>      -0.28571429      -0.00000000       0.28571429 </v>
   <v>      -0.14285714       0.00000000       0.28571429 </v>
   <v>       0.00000000       0.14285714       0.28571429 </v>
   <v>       0.14285714       0.14285714       0.28571429 </v>
   <v>       0.28571429       0.14285714       0.28571429 </v>
   <v>       0.42857143       0.14285714       0.28571429 </v>
   <v>      -0.42857143       0.14285714       0.28571429 </v>
   <v>      -0.28571429       0.14285714       0.28571429 </v>
   <v>      -0.14285714       0.14285714       0.28571429 </v>
   <v>      -0.00000000       0.28571429       0.28571429 </v>
   <v>       0.14285714       0.28571429       0.28571429 </v>
   <v>       0.28571429       0.28571429       0.28571429 </v>
   <v>       0.42857143       0.28571429       0.28571429 </v>
   <v>      -0.42857143       0.28571429       0.28571429 </v>
   <v>      -0.28571429       0.28571429       0.28571429 </v>
   <v>      -0.14285714       0.28571429       0.28571429 </v>
   <v>       0.00000000       0.42857143       0.28571429 </v>
   <v>       0.14285714       0.42857143       0.28571429 </v>
   <v>       0.28571429       0.42857143       0.28571429 </v>
   <v>       0.42857143       0.42857143       0.28571429 </v>
   <v>      -0.42857143       0.42857143       0.28571429 </v>
   <v>      -0.28571429       0.42857143       0.28571429 </v>
   <v>      -0.14285714       0.42857143       0.28571429 </v>
   <v>      -0.00000000      -0.42857143       0.28571429 </v>
   <v>       0.14285714      -0.42857143       0.28571429 </v>
   <v>       0.28571429      -0.42857143       0.28571429 </v>
   <v>       0.42857143      -0.42857143       0.28571429 </v>
   <v>      -0.42857143      -0.42857143       0.28571429 </v>
   <v>      -0.28571429      -0.42857143       0.28571429 </v>
   <v>      -0.14285714      -0.42857143       0.28571429 </v>
   <v>       0.00000000      -0.28571429       0.28571429 </v>
   <v>       0.14285714      -0.28571429       0.28571429 </v>
   <v>       0.28571429      -0.28571429       0.28571429 </v>
   <v>       0.42857143      -0.28571429       0.28571429 </v>
   <v>      -0.42857143      -0.28571429       0.28571429 </v>
   <v>      -0.28571429      -0.28571429       0.28571429 </v>
   <v>      -0.14285714      -0.28571429       0.28571429 </v>
   <v>       0.00000000      -0.14285714       0.28571429 </v>
   <v>       0.14285714      -0.14285714       0.28571429 </v>
   <v>       0.28571429      -0.14285714       0.28571429 </v>
   <v>       0.42857143      -0.14285714       0.28571429 </v>
   <v>      -0.42857143      -0.14285714       0.28571429 </v>
   <v>      -0.28571429      -0.14285714       0.28571429 </v>
   <v>      -0.14285714      -0.14285714       0.28571429 </v>
   <v>       0.00000000       0.00000000       0.42857143 </v>
   <v>       0.14285714       0.00000000       0.42857143 </v>
   <v>       0.28571429       0.00000000       0.42857143 </v>
   <v>       0.42857143       0.00000000       0.42857143 </v>
   <v>      -0.42857143       0.00000000       0.42857143 </v>
   <v>      -0.28571429       0.00000000       0.42857143 </v>
   <v>      -0.14285714       0.00000000       0.42857143 </v>
   <v>       0.00000000       0.14285714       0.42857143 </v>
   <v>       0.14285714       0.14285714       0.42857143 </v>
   <v>       0.28571429       0.14285714       0.42857143 </v>
   <v>       0.42857143       0.14285714       0.42857143 </v>
   <v>      -0.42857143       0.14285714       0.42857143 </v>
   <v>      -0.28571429       0.14285714       0.42857143 </v>
   <v>      -0.14285714       0.14285714       0.42857143 </v>
   <v>       0.00000000       0.28571429       0.42857143 </v>
   <v>       0.14285714       0.28571429       0.42857143 </v>
   <v>       0.28571429       0.28571429       0.42857143 </v>
   <v>       0.42857143       0.28571429       0.42857143 </v>
   <v>      -0.42857143       0.28571429       0.42857143 </v>
   <v>      -0.28571429       0.28571429       0.42857143 </v>
   <v>      -0.14285714       0.28571429       0.42857143 </v>
   <v>      -0.00000000       0.42857143       0.42857143 </v>
   <v>       0.14285714       0.42857143       0.42857143 </v>
   <v>       0.28571429       0.42857143       0.42857143 </v>
   <v>       0.42857143       0.42857143       0.42857143 </v>
   <v>      -0.42857143       0.42857143       0.42857143 </v>
   <v>      -0.28571429       0.42857143       0.42857143 </v>
   <v>      -0.14285714       0.42857143       0.42857143 </v>
   <v>      -0.00000000      -0.42857143       0.42857143 </v>
   <v>       0.14285714      -0.42857143       0.42857143 </v>
   <v>       0.28571429      -0.42857143       0.42857143 </v>
   <v>       0.42857143      -0.42857143       0.42857143 </v>
   <v>      -0.42857143      -0.42857143       0.42857143 </v>
   <v>      -0.28571429      -0.42857143       0.42857143 </v>
   <v>      -0.14285714      -0.42857143       0.42857143 </v>
   <v>      -0.00000000      -0.28571429       0.42857143 </v>
   <v>       0.14285714      -0.28571429       0.42857143 </v>
   <v>       0.28571429      -0.28571429       0.42857143 </v>
   <v>       0.42857143      -0.28571429       0.42857143 </v>
   <v>      -0.42857143      -0.28571429       0.42857143 </v>
   <v>      -0.28571429      -0.28571429       0.42857143 </v>
   <v>      -0.14285714      -0.28571429       0.42857143 </v>
   <v>       0.00000000      -0.14285714       0.42857143 </v>
   <v>       0.14285714      -0.14285714       0.42857143 </v>
   <v>       0.28571429      -0.14285714       0.42857143 </v>
   <v>       0.42857143      -0.14285714       0.42857143 </v>
   <v>      -0.42857143      -0.14285714       0.42857143 </v>
   <v>      -0.28571429      -0.14285714       0.42857143 </v>
   <v>      -0.14285714      -0.14285714       0.42857143 </v>
   <v>       0.00000000      -0.00000000      -0.42857143 </v>
   <v>       0.14285714      -0.00000000      -0.42857143 </v>
   <v>       0.28571429      -0.00000000      -0.42857143 </v>
   <v>       0.42857143      -0.00000000      -0.42857143 </v>
   <v>      -0.42857143      -0.00000000      -0.42857143 </v>
   <v>      -0.28571429      -0.00000000      -0.42857143 </v>
   <v>      -0.14285714      -0.00000000      -0.42857143 </v>
   <v>       0.00000000       0.14285714      -0.42857143 </v>
   <v>       0.14285714       0.14285714      -0.42857143 </v>
   <v>       0.28571429       0.14285714      -0.42857143 </v>
   <v>       0.42857143       0.14285714      -0.42857143 </v>
   <v>      -0.42857143       0.14285714      -0.42857143 </v>
   <v>      -0.28571429       0.14285714      -0.42857143 </v>
   <v>      -0.14285714       0.14285714      -0.42857143 </v>
   <v>       0.00000000       0.28571429      -0.42857143 </v>
   <v>       0.14285714       0.28571429      -0.42857143 </v>
   <v>       0.28571429       0.28571429      -0.42857143 </v>
   <v>       0.42857143       0.28571429      -0.42857143 </v>
   <v>      -0.42857143       0.28571429      -0.42857143 </v>
   <v>      -0.28571429       0.28571429      -0.42857143 </v>
   <v>      -0.14285714       0.28571429      -0.42857143 </v>
   <v>       0.00000000       0.42857143      -0.42857143 </v>
   <v>       0.14285714       0.42857143      -0.42857143 </v>
   <v>       0.28571429       0.42857143      -0.42857143 </v>
   <v>       0.42857143       0.42857143      -0.42857143 </v>
   <v>      -0.42857143       0.42857143      -0.42857143 </v>
   <v>      -0.28571429       0.42857143      -0.42857143 </v>
   <v>      -0.14285714       0.42857143      -0.42857143 </v>
   <v>       0.00000000      -0.42857143      -0.42857143 </v>
   <v>       0.14285714      -0.42857143      -0.42857143 </v>
   <v>       0.28571429      -0.42857143      -0.42857143 </v>
   <v>       0.42857143      -0.42857143      -0.42857143 </v>
   <v>      -0.42857143      -0.42857143      -0.42857143 </v>
   <v>      -0.28571429      -0.42857143      -0.42857143 </v>
   <v>      -0.14285714      -0.42857143      -0.42857143 </v>
   <v>       0.00000000      -0.28571429      -0.42857143 </v>
   <v>       0.14285714      -0.28571429      -0.42857143 </v>
   <v>       0.28571429      -0.28571429      -0.42857143 </v>
   <v>       0.42857143      -0.28571429      -0.42857143 </v>
   <v>      -0.42857143      -0.28571429      -0.42857143 </v>
   <v>      -0.28571429      -0.28571429      -0.42857143 </v>
   <v>      -0.14285714      -0.28571429      -0.42857143 </v>
   <v>       0.00000000      -0.14285714      -0.42857143 </v>
   <v>       0.14285714      -0.14285714      -0.42857143 </v>
   <v>       0.28571429      -0.14285714      -0.42857143 </v>
   <v>       0.42857143      -0.14285714      -0.42857143 </v>
   <v>      -0.42857143      -0.14285714      -0.42857143 </v>
   <v>      -0.28571429      -0.14285714      -0.42857143 </v>
   <v>      -0.14285714      -0.14285714      -0.42857143 </v>
   <v>       0.00000000      -0.00000000      -0.28571429 </v>
   <v>       0.14285714      -0.00000000      -0.28571429 </v>
   <v>       0.28571429       0.00000000      -0.28571429 </v>
   <v>       0.42857143       0.00000000      -0.28571429 </v>
   <v>      -0.42857143       0.00000000      -0.28571429 </v>
   <v>      -0.28571429       0.00000000      -0.28571429 </v>
   <v>      -0.14285714      -0.00000000      -0.28571429 </v>
   <v>       0.00000000       0.14285714      -0.28571429 </v>
   <v>       0.14285714       0.14285714      -0.28571429 </v>
   <v>       0.28571429       0.14285714      -0.28571429 </v>
   <v>       0.42857143       0.14285714      -0.28571429 </v>
   <v>      -0.42857143       0.14285714      -0.28571429 </v>
   <v>      -0.28571429       0.14285714      -0.28571429 </v>
   <v>      -0.14285714       0.14285714      -0.28571429 </v>
   <v>       0.00000000       0.28571429      -0.28571429 </v>
   <v>       0.14285714       0.28571429      -0.28571429 </v>
   <v>       0.28571429       0.28571429      -0.28571429 </v>
   <v>       0.42857143       0.28571429      -0.28571429 </v>
   <v>      -0.42857143       0.28571429      -0.28571429 </v>
   <v>      -0.28571429       0.28571429      -0.28571429 </v>
   <v>      -0.14285714       0.28571429      -0.28571429 </v>
   <v>       0.00000000       0.42857143      -0.28571429 </v>
   <v>       0.14285714       0.42857143      -0.28571429 </v>
   <v>       0.28571429       0.42857143      -0.28571429 </v>
   <v>       0.42857143       0.42857143      -0.28571429 </v>
   <v>      -0.42857143       0.42857143      -0.28571429 </v>
   <v>      -0.28571429       0.42857143      -0.28571429 </v>
   <v>      -0.14285714       0.42857143      -0.28571429 </v>
   <v>       0.00000000      -0.42857143      -0.28571429 </v>
   <v>       0.14285714      -0.42857143      -0.28571429 </v>
   <v>       0.28571429      -0.42857143      -0.28571429 </v>
   <v>       0.42857143      -0.42857143      -0.28571429 </v>
   <v>      -0.42857143      -0.42857143      -0.28571429 </v>
   <v>      -0.28571429      -0.42857143      -0.28571429 </v>
   <v>      -0.14285714      -0.42857143      -0.28571429 </v>
   <v>       0.00000000      -0.28571429      -0.28571429 </v>
   <v>       0.14285714      -0.28571429      -0.28571429 </v>
   <v>       0.28571429      -0.28571429      -0.28571429 </v>
   <v>       0.42857143      -0.28571429      -0.28571429 </v>
   <v>      -0.42857143      -0.28571429      -0.28571429 </v>
   <v>      -0.28571429      -0.28571429      -0.28571429 </v>
   <v>      -0.14285714      -0.28571429      -0.28571429 </v>
   <v>      -0.00000000      -0.14285714      -0.28571429 </v>
   <v>       0.14285714      -0.14285714      -0.28571429 </v>
   <v>       0.28571429      -0.14285714      -0.28571429 </v>
   <v>       0.42857143      -0.14285714      -0.28571429 </v>
   <v>      -0.42857143      -0.14285714      -0.28571429 </v>
   <v>      -0.28571429      -0.14285714      -0.28571429 </v>
   <v>      -0.14285714      -0.14285714      -0.28571429 </v>
   <v>       0.00000000       0.00000000      -0.14285714 </v>
   <v>       0.14285714       0.00000000      -0.14285714 </v>
   <v>       0.28571429       0.00000000      -0.14285714 </v>
   <v>       0.42857143       0.00000000      -0.14285714 </v>
   <v>      -0.42857143      -0.00000000      -0.14285714 </v>
   <v>      -0.28571429       0.00000000      -0.14285714 </v>
   <v>      -0.14285714       0.00000000      -0.14285714 </v>
   <v>       0.00000000       0.14285714      -0.14285714 </v>
   <v>       0.14285714       0.14285714      -0.14285714 </v>
   <v>       0.28571429       0.14285714      -0.14285714 </v>
   <v>       0.42857143       0.14285714      -0.14285714 </v>
   <v>      -0.42857143       0.14285714      -0.14285714 </v>
   <v>      -0.28571429       0.14285714      -0.14285714 </v>
   <v>      -0.14285714       0.14285714      -0.14285714 </v>
   <v>       0.00000000       0.28571429      -0.14285714 </v>
   <v>       0.14285714       0.28571429      -0.14285714 </v>
   <v>       0.28571429       0.28571429      -0.14285714 </v>
   <v>       0.42857143       0.28571429      -0.14285714 </v>
   <v>      -0.42857143       0.28571429      -0.14285714 </v>
   <v>      -0.28571429       0.28571429      -0.14285714 </v>
   <v>      -0.14285714       0.28571429      -0.14285714 </v>
   <v>       0.00000000       0.42857143      -0.14285714 </v>
   <v>       0.14285714       0.42857143      -0.14285714 </v>
   <v>       0.28571429       0.42857143      -0.14285714 </v>
   <v>       0.42857143       0.42857143      -0.14285714 </v>
   <v>      -0.42857143       0.42857143      -0.14285714 </v>
   <v>      -0.28571429       0.42857143      -0.14285714 </v>
   <v>      -0.14285714       0.42857143      -0.14285714 </v>
   <v>       0.00000000      -0.42857143      -0.14285714 </v>
   <v>       0.14285714      -0.42857143      -0.14285714 </v>
   <v>       0.28571429      -0.42857143      -0.14285714 </v>
   <v>       0.42857143      -0.42857143      -0.14285714 </v>
   <v>      -0.42857143      -0.42857143      -0.14285714 </v>
   <v>      -0.28571429      -0.42857143      -0.14285714 </v>
   <v>      -0.14285714      -0.42857143      -0.14285714 </v>
   <v>       0.00000000      -0.28571429      -0.14285714 </v>
   <v>       0.14285714      -0.28571429      -0.14285714 </v>
   <v>       0.28571429      -0.28571429      -0.14285714 </v>
   <v>       0.42857143      -0.28571429      -0.14285714 </v>
   <v>      -0.42857143      -0.28571429      -0.14285714 </v>
   <v>      -0.28571429      -0.28571429      -0.14285714 </v>
   <v>      -0.14285714      -0.28571429      -0.14285714 </v>
   <v>       0.00000000      -0.14285714      -0.14285714 </v>
   <v>       0.14285714      -0.14285714      -0.14285714 </v>
   <v>       0.28571429      -0.14285714      -0.14285714 </v>
   <v>       0.42857143      -0.14285714      -0.14285714 </v>
   <v>      -0.42857143      -0.14285714      -0.14285714 </v>
   <v>      -0.28571429      -0.14285714      -0.14285714 </v>
   <v>      -0.14285714      -0.14285714      -0.14285714 </v>
  </varray>
  <varray name="weights" >
   <v>       0.00291545 </v>
   <v>       0.00291545 </v>
   <v>       0.00291545 </v>
   <v>       0.00291545 </v>
   <v>       0.00291545 </v>
   <v>       0.00291545 </v>
   <v>       0.00291545 </v>
   <v>       0.00291545 </v>
   <v>       0.00291545 </v>
   <v>       0.00291545 </v>
   <v>       0.00291545 </v>
   <v>       0.00291545 </v>
   <v>       0.00291545 </v>
   <v>       0.00291545 </v>
   <v>       0.00291545 </v>
   <v>       0.00291545 </v>
   <v>       0.00291545 </v>
   <v>       0.00291545 </v>
   <v>       0.00291545 </v>
   <v>       0.00291545 </v>
   <v>       0.00291545 </v>
   <v>       0.00291545 </v>
   <v>       0.00291545 </v>
   <v>       0.00291545 </v>
   <v>       0.00291545 </v>
   <v>       0.00291545 </v>
   <v>       0.00291545 </v>
   <v>       0.00291545 </v>
   <v>       0.00291545 </v>
   <v>       0.00291545 </v>
   <v>       0.00291545 </v>
   <v>       0.00291545 </v>
   <v>       0.00291545 </v>
   <v>       0.00291545 </v>
   <v>       0.00291545 </v>
   <v>       0.00291545 </v>
   <v>       0.00291545 </v>
   <v>       0.00291545 </v>
   <v>       0.00291545 </v>
   <v>       0.00291545 </v>
   <v>       0.00291545 </v>
   <v>       0.00291545 </v>
   <v>       0.00291545 </v>
   <v>       0.00291545 </v>
   <v>       0.00291545 </v>
   <v>       0.00291545 </v>
   <v>       0.00291545 </v>
   <v>       0.00291545 </v>
   <v>       0.00291545 </v>
   <v>       0.00291545 </v>
   <v>       0.00291545 </v>
   <v>       0.00291545 </v>
   <v>       0.00291545 </v>
   <v>       0.00291545 </v>
   <v>       0.00291545 </v>
   <v>       0.00291545 </v>
   <v>       0.00291545 </v>
   <v>       0.00291545 </v>
   <v>       0.00291545 </v>
   <v>       0.00291545 </v>
   <v>       0.00291545 </v>
   <v>       0.00291545 </v>
   <v>       0.00291545 </v>
   <v>       0.00291545 </v>
   <v>       0.00291545 </v>
   <v>       0.00291545 </v>
   <v>       0.00291545 </v>
   <v>       0.00291545 </v>
   <v>       0.00291545 </v>
   <v>       0.00291545 </v>
   <v>       0.00291545 </v>
   <v>       0.00291545 </v>
   <v>       0.00291545 </v>
   <v>       0.00291545 </v>
   <v>       0.00291545 </v>
   <v>       0.00291545 </v>
   <v>       0.00291545 </v>
   <v>       0.00291545 </v>
   <v>       0.00291545 </v>
   <v>       0.00291545 </v>
   <v>       0.00291545 </v>
   <v>       0.00291545 </v>
   <v>       0.00291545 </v>
   <v>       0.00291545 </v>
   <v>       0.00291545 </v>
   <v>       0.00291545 </v>
   <v>       0.00291545 </v>
   <v>       0.00291545 </v>
   <v>       0.00291545 </v>
   <v>       0.00291545 </v>
   <v>       0.00291545 </v>
   <v>       0.00291545 </v>
   <v>       0.00291545 </v>
   <v>       0.00291545 </v>
   <v>       0.00291545 </v>
   <v>       0.00291545 </v>
   <v>       0.00291545 </v>
   <v>       0.00291545 </v>
   <v>       0.00291545 </v>
   <v>       0.00291545 </v>
   <v>       0.00291545 </v>
   <v>       0.00291545 </v>
   <v>       0.00291545 </v>
   <v>       0.00291545 </v>
   <v>       0.00291545 </v>
   <v>       0.00291545 </v>
   <v>       0.00291545 </v>
   <v>       0.00291545 </v>
   <v>       0.00291545 </v>
   <v>       0.00291545 </v>
   <v>       0.00291545 </v>
   <v>       0.00291545 </v>
   <v>       0.00291545 </v>
   <v>       0.00291545 </v>
   <v>       0.00291545 </v>
   <v>       0.00291545 </v>
   <v>       0.00291545 </v>
   <v>       0.00291545 </v>
   <v>       0.00291545 </v>
   <v>       0.00291545 </v>
   <v>       0.00291545 </v>
   <v>       0.00291545 </v>
   <v>       0.00291545 </v>
   <v>       0.00291545 </v>
   <v>       0.00291545 </v>
   <v>       0.00291545 </v>
   <v>       0.00291545 </v>
   <v>       0.00291545 </v>
   <v>       0.00291545 </v>
   <v>       0.00291545 </v>
   <v>       0.00291545 </v>
   <v>       0.00291545 </v>
   <v>       0.00291545 </v>
   <v>       0.00291545 </v>
   <v>       0.00291545 </v>
   <v>       0.00291545 </v>
   <v>       0.00291545 </v>
   <v>       0.00291545 </v>
   <v>       0.00291545 </v>
   <v>       0.00291545 </v>
   <v>       0.00291545 </v>
   <v>       0.00291545 </v>
   <v>       0.00291545 </v>
   <v>       0.00291545 </v>
   <v>       0.00291545 </v>
   <v>       0.00291545 </v>
   <v>       0.00291545 </v>
   <v>       0.00291545 </v>
   <v>       0.00291545 </v>
   <v>       0.00291545 </v>
   <v>       0.00291545 </v>
   <v>       0.00291545 </v>
   <v>       0.00291545 </v>
   <v>       0.00291545 </v>
   <v>       0.00291545 </v>
   <v>       0.00291545 </v>
   <v>       0.00291545 </v>
   <v>       0.00291545 </v>
   <v>       0.00291545 </v>
   <v>       0.00291545 </v>
   <v>       0.00291545 </v>
   <v>       0.00291545 </v>
   <v>       0.00291545 </v>
   <v>       0.00291545 </v>
   <v>       0.00291545 </v>
   <v>       0.00291545 </v>
   <v>       0.00291545 </v>
   <v>       0.00291545 </v>
   <v>       0.00291545 </v>
   <v>       0.00291545 </v>
   <v>       0.00291545 </v>
   <v>       0.00291545 </v>
   <v>       0.00291545 </v>
   <v>       0.00291545 </v>
   <v>       0.00291545 </v>
   <v>       0.00291545 </v>
   <v>       0.00291545 </v>
   <v>       0.00291545 </v>
   <v>       0.00291545 </v>
   <v>       0.00291545 </v>
   <v>       0.00291545 </v>
   <v>       0.00291545 </v>
   <v>       0.00291545 </v>
   <v>       0.00291545 </v>
   <v>       0.00291545 </v>
   <v>       0.00291545 </v>
   <v>       0.00291545 </v>
   <v>       0.00291545 </v>
   <v>       0.00291545 </v>
   <v>       0.00291545 </v>
   <v>       0.00291545 </v>
   <v>       0.00291545 </v>
   <v>       0.00291545 </v>
   <v>       0.00291545 </v>
   <v>       0.00291545 </v>
   <v>       0.00291545 </v>
   <v>       0.00291545 </v>
   <v>       0.00291545 </v>
   <v>       0.00291545 </v>
   <v>       0.00291545 </v>
   <v>       0.00291545 </v>
   <v>       0.00291545 </v>
   <v>       0.00291545 </v>
   <v>       0.00291545 </v>
   <v>       0.00291545 </v>
   <v>       0.00291545 </v>
   <v>       0.00291545 </v>
   <v>       0.00291545 </v>
   <v>       0.00291545 </v>
   <v>       0.00291545 </v>
   <v>       0.00291545 </v>
   <v>       0.00291545 </v>
   <v>       0.00291545 </v>
   <v>       0.00291545 </v>
   <v>       0.00291545 </v>
   <v>       0.00291545 </v>
   <v>       0.00291545 </v>
   <v>       0.00291545 </v>
   <v>       0.00291545 </v>
   <v>       0.00291545 </v>
   <v>       0.00291545 </v>
   <v>       0.00291545 </v>
   <v>       0.00291545 </v>
   <v>       0.00291545 </v>
   <v>       0.00291545 </v>
   <v>       0.00291545 </v>
   <v>       0.00291545 </v>
   <v>       0.00291545 </v>
   <v>       0.00291545 </v>
   <v>       0.00291545 </v>
   <v>       0.00291545 </v>
   <v>       0.00291545 </v>
   <v>       0.00291545 </v>
   <v>       0.00291545 </v>
   <v>       0.00291545 </v>
   <v>       0.00291545 </v>
   <v>       0.00291545 </v>
   <v>       0.00291545 </v>
   <v>       0.00291545 </v>
   <v>       0.00291545 </v>
   <v>       0.00291545 </v>
   <v>       0.00291545 </v>
   <v>       0.00291545 </v>
   <v>       0.00291545 </v>
   <v>       0.00291545 </v>
   <v>       0.00291545 </v>
   <v>       0.00291545 </v>
   <v>       0.00291545 </v>
   <v>       0.00291545 </v>
   <v>       0.00291545 </v>
   <v>       0.00291545 </v>
   <v>       0.00291545 </v>
   <v>       0.00291545 </v>
   <v>       0.00291545 </v>
   <v>       0.00291545 </v>
   <v>       0.00291545 </v>
   <v>       0.00291545 </v>
   <v>       0.00291545 </v>
   <v>       0.00291545 </v>
   <v>       0.00291545 </v>
   <v>       0.00291545 </v>
   <v>       0.00291545 </v>
   <v>       0.00291545 </v>
   <v>       0.00291545 </v>
   <v>       0.00291545 </v>
   <v>       0.00291545 </v>
   <v>       0.00291545 </v>
   <v>       0.00291545 </v>
   <v>       0.00291545 </v>
   <v>       0.00291545 </v>
   <v>       0.00291545 </v>
   <v>       0.00291545 </v>
   <v>       0.00291545 </v>
   <v>       0.00291545 </v>
   <v>       0.00291545 </v>
   <v>       0.00291545 </v>
   <v>       0.00291545 </v>
   <v>       0.00291545 </v>
   <v>       0.00291545 </v>
   <v>       0.00291545 </v>
   <v>       0.00291545 </v>
   <v>       0.00291545 </v>
   <v>       0.00291545 </v>
   <v>       0.00291545 </v>
   <v>       0.00291545 </v>
   <v>       0.00291545 </v>
   <v>       0.00291545 </v>
   <v>       0.00291545 </v>
   <v>       0.00291545 </v>
   <v>       0.00291545 </v>
   <v>       0.00291545 </v>
   <v>       0.00291545 </v>
   <v>       0.00291545 </v>
   <v>       0.00291545 </v>
   <v>       0.00291545 </v>
   <v>       0.00291545 </v>
   <v>       0.00291545 </v>
   <v>       0.00291545 </v>
   <v>       0.00291545 </v>
   <v>       0.00291545 </v>
   <v>       0.00291545 </v>
   <v>       0.00291545 </v>
   <v>       0.00291545 </v>
   <v>       0.00291545 </v>
   <v>       0.00291545 </v>
   <v>       0.00291545 </v>
   <v>       0.00291545 </v>
   <v>       0.00291545 </v>
   <v>       0.00291545 </v>
   <v>       0.00291545 </v>
   <v>       0.00291545 </v>
   <v>       0.00291545 </v>
   <v>       0.00291545 </v>
   <v>       0.00291545 </v>
   <v>       0.00291545 </v>
   <v>       0.00291545 </v>
   <v>       0.00291545 </v>
   <v>       0.00291545 </v>
   <v>       0.00291545 </v>
   <v>       0.00291545 </v>
   <v>       0.00291545 </v>
   <v>       0.00291545 </v>
   <v>       0.00291545 </v>
   <v>       0.00291545 </v>
   <v>       0.00291545 </v>
   <v>       0.00291545 </v>
   <v>       0.00291545 </v>
   <v>       0.00291545 </v>
   <v>       0.00291545 </v>
   <v>       0.00291545 </v>
   <v>       0.00291545 </v>
   <v>       0.00291545 </v>
   <v>       0.00291545 </v>
   <v>       0.00291545 </v>
   <v>       0.00291545 </v>
   <v>       0.00291545 </v>
   <v>       0.00291545 </v>
   <v>       0.00291545 </v>
   <v>       0.00291545 </v>
   <v>       0.00291545 </v>
   <v>       0.00291545 </v>
   <v>       0.00291545 </v>
   <v>       0.00291545 </v>
  </varray>
 </kpoints>
 <parameters>
  <separator name="general" >
   <i type="string" name="SYSTEM">Og_FCC</i>
   <i type="logical" name="LCOMPAT"> F  </i>
  </separator>
  <separator name="electronic" >
   <i type="string" name="PREC">accura</i>
   <i name="ENMAX">    300.00000000</i>
   <i name="ENAUG">    361.02500000</i>
   <i name="EDIFF">      0.00000001</i>
   <i type="int" name="IALGO">    90</i>
   <i type="int" name="IWAVPR">    10</i>
   <i type="int" name="NBANDS">   196</i>
   <i name="NELECT">     18.00000000</i>
   <i type="int" name="TURBO">     0</i>
   <i type="int" name="IRESTART">     0</i>
   <i type="int" name="NREBOOT">     0</i>
   <i type="int" name="NMIN">     0</i>
   <i name="EREF">      0.00000000</i>
   <separator name="electronic smearing" >
    <i type="int" name="ISMEAR">     0</i>
    <i name="SIGMA">      0.00100000</i>
    <i name="KSPACING">      0.50000000</i>
    <i type="logical" name="KGAMMA"> T  </i>
   </separator>
   <separator name="electronic projectors" >
    <i type="logical" name="LREAL"> F  </i>
    <v name="ROPT">      0.00000000</v>
    <i type="int" name="LMAXPAW">  -100</i>
    <i type="int" name="LMAXMIX">     2</i>
    <i type="logical" name="NLSPLINE"> F  </i>
   </separator>
   <separator name="electronic startup" >
    <i type="int" name="ISTART">     1</i>
    <i type="int" name="ICHARG">     0</i>
    <i type="int" name="INIWAV">     1</i>
   </separator>
   <separator name="electronic spin" >
    <i type="int" name="ISPIN">     1</i>
    <i type="logical" name="LNONCOLLINEAR"> T  </i>
    <v name="MAGMOM">      1.00000000      1.00000000      1.00000000</v>
    <i name="NUPDOWN">     -1.00000000</i>
    <i type="logical" name="LSORBIT"> T  </i>
    <v name="SAXIS">      0.00000000      0.00000000      1.00000000</v>
    <i type="logical" name="LSPIRAL"> F  </i>
    <v name="QSPIRAL">      0.00000000      0.00000000      0.00000000</v>
    <i type="logical" name="LZEROZ"> F  </i>
   </separator>
   <separator name="electronic exchange-correlation" >
    <i type="logical" name="LASPH"> F  </i>
    <i type="logical" name="LMETAGGA"> F  </i>
   </separator>
   <separator name="electronic convergence" >
    <i type="int" name="NELM">    50</i>
    <i type="int" name="NELMDL">    -5</i>
    <i type="int" name="NELMIN">     2</i>
    <i name="ENINI">    300.00000000</i>
    <separator name="electronic convergence detail" >
     <i type="logical" name="LDIAG"> T  </i>
     <i type="logical" name="LSUBROT"> F  </i>
     <i name="WEIMIN">      0.00000000</i>
     <i name="EBREAK">      0.00000000</i>
     <i name="DEPER">      0.30000000</i>
     <i type="int" name="NRMM">     4</i>
     <i name="TIME">      0.40000000</i>
    </separator>
   </separator>
   <separator name="electronic mixer" >
    <i name="AMIX">      0.40000000</i>
    <i name="BMIX">      1.00000000</i>
    <i name="AMIN">      0.10000000</i>
    <i name="AMIX_MAG">      1.60000000</i>
    <i name="BMIX_MAG">      1.00000000</i>
    <separator name="electronic mixer details" >
     <i type="int" name="IMIX">     4</i>
     <i type="logical" name="MIXFIRST"> F  </i>
     <i type="int" name="MAXMIX">    50</i>
     <i name="WC">    100.00000000</i>
     <i type="int" name="INIMIX">     1</i>
     <i type="int" name="MIXPRE">     1</i>
     <i type="int" name="MREMOVE">     5</i>
    </separator>
   </separator>
   <separator name="electronic dipolcorrection" >
    <i type="logical" name="LDIPOL"> F  </i>
    <i type="logical" name="LMONO"> F  </i>
    <i type="int" name="IDIPOL">     0</i>
    <i name="EPSILON">      1.00000000</i>
    <v name="DIPOL">   -100.00000000   -100.00000000   -100.00000000</v>
    <i name="EFIELD">      0.00000000</i>
   </separator>
  </separator>
  <separator name="grids" >
   <i type="int" name="NGX">    28</i>
   <i type="int" name="NGY">    28</i>
   <i type="int" name="NGZ">    28</i>
   <i type="int" name="NGXF">    56</i>
   <i type="int" name="NGYF">    56</i>
   <i type="int" name="NGZF">    56</i>
   <i type="logical" name="ADDGRID"> T  </i>
  </separator>
  <separator name="ionic" >
   <i type="int" name="NSW">     1</i>
   <i type="int" name="IBRION">    -1</i>
   <i type="int" name="MDALGO">     0</i>
   <i type="int" name="ISIF">     3</i>
   <i name="PSTRESS">      0.00000000</i>
   <i name="EDIFFG">      0.00001000</i>
   <i type="int" name="NFREE">     5</i>
   <i name="POTIM">      0.10000000</i>
   <i name="SMASS">     -3.00000000</i>
   <i name="SCALEE">      1.00000000</i>
  </separator>
  <separator name="ionic md" >
   <i name="TEBEG">      0.00010000</i>
   <i name="TEEND">      0.00010000</i>
   <i type="int" name="NBLOCK">     1</i>
   <i type="int" name="KBLOCK">     1</i>
   <i type="int" name="NPACO">   256</i>
   <i name="APACO">     16.00000000</i>
  </separator>
  <separator name="symmetry" >
   <i type="int" name="ISYM">     0</i>
   <i name="SYMPREC">      0.00000010</i>
  </separator>
  <separator name="dos" >
   <i type="int" name="LORBIT">     0</i>
   <v name="RWIGS">     -1.00000000</v>
   <i type="int" name="NEDOS">   301</i>
   <i name="EMIN">     10.00000000</i>
   <i name="EMAX">    -10.00000000</i>
   <i name="EFERMI">      0.00000000</i>
  </separator>
  <separator name="writing" >
   <i type="int" name="NWRITE">     2</i>
   <i type="logical" name="LWAVE"> T  </i>
   <i type="logical" name="LDOWNSAMPLE"> F  </i>
   <i type="logical" name="LCHARG"> F  </i>
   <i type="logical" name="LPARD"> F  </i>
   <i type="logical" name="LVTOT"> F  </i>
   <i type="logical" name="LVHAR"> F  </i>
   <i type="logical" name="LELF"> F  </i>
   <i type="logical" name="LOPTICS"> T  </i>
   <v name="STM">      0.00000000      0.00000000      0.00000000      0.00000000      0.00000000      0.00000000      0.00000000</v>
  </separator>
  <separator name="performance" >
   <i type="int" name="NPAR">     2</i>
   <i type="int" name="NSIM">     4</i>
   <i type="int" name="NBLK">    -1</i>
   <i type="logical" name="LPLANE"> T  </i>
   <i type="logical" name="LSCALAPACK"> T  </i>
   <i type="logical" name="LSCAAWARE"> T  </i>
   <i type="logical" name="LSCALU"> F  </i>
   <i type="logical" name="LASYNC"> F  </i>
   <i type="logical" name="LORBITALREAL"> F  </i>
  </separator>
  <separator name="miscellaneous" >
   <i type="int" name="IDIOT">     3</i>
   <i type="int" name="ISPECIAL">     0</i>
   <i type="logical" name="LMUSIC"> F  </i>
   <v name="POMASS">      0.01000000</v>
   <v name="DARWINR">      0.00000000</v>
   <v name="DARWINV">      1.00000000</v>
   <i type="logical" name="LCORR"> T  </i>
  </separator>
  <i type="logical" name="GGA_COMPAT"> F  </i>
  <i type="logical" name="LBERRY"> F  </i>
  <i type="int" name="ICORELEVEL">     0</i>
  <i type="logical" name="LDAU"> F  </i>
  <i type="int" name="I_CONSTRAINED_M">     0</i>
  <separator name="electronic exchange-correlation" >
   <i type="string" name="GGA">PE</i>
   <i type="int" name="VOSKOWN">     0</i>
   <i type="logical" name="LHFCALC"> F  </i>
   <i type="string" name="PRECFOCK"></i>
   <i type="logical" name="LSYMGRAD"> F  </i>
   <i type="logical" name="LHFONE"> F  </i>
   <i type="logical" name="LRHFCALC"> F  </i>
   <i type="logical" name="LTHOMAS"> F  </i>
   <i type="logical" name="LMODELHF"> F  </i>
   <i name="ENCUT4O">     -1.00000000</i>
   <i type="int" name="EXXOEP">     0</i>
   <i type="int" name="FOURORBIT">     0</i>
   <i name="AEXX">      0.00000000</i>
   <i name="HFALPHA">      0.00000000</i>
   <i name="MCALPHA">      0.00000000</i>
   <i name="ALDAX">      1.00000000</i>
   <i name="AGGAX">      1.00000000</i>
   <i name="ALDAC">      1.00000000</i>
   <i name="AGGAC">      1.00000000</i>
   <i type="int" name="NKREDX">     1</i>
   <i type="int" name="NKREDY">     1</i>
   <i type="int" name="NKREDZ">     1</i>
   <i type="logical" name="SHIFTRED"> F  </i>
   <i type="logical" name="ODDONLY"> F  </i>
   <i type="logical" name="EVENONLY"> F  </i>
   <i type="int" name="LMAXFOCK">     0</i>
   <i type="int" name="NMAXFOCKAE">     0</i>
   <i type="logical" name="LFOCKAEDFT"> F  </i>
   <i name="HFSCREEN">      0.00000000</i>
   <i name="HFSCREENC">      0.00000000</i>
   <i type="int" name="NBANDSGWLOW">     0</i>
  </separator>
  <separator name="vdW DFT" >
   <i type="logical" name="LUSE_VDW"> F  </i>
   <i name="Zab_VDW">     -0.84910000</i>
   <i name="PARAM1">      0.12340000</i>
   <i name="PARAM2">      1.00000000</i>
   <i name="PARAM3">      0.00000000</i>
  </separator>
  <separator name="model GW" >
   <i type="int" name="MODEL_GW">     0</i>
   <i name="MODEL_EPS0">     36.05064879</i>
   <i name="MODEL_ALPHA">      1.00000000</i>
  </separator>
  <separator name="linear response parameters" >
   <i type="logical" name="LEPSILON"> F  </i>
   <i type="logical" name="LRPA"> F  </i>
   <i type="logical" name="LNABLA"> F  </i>
   <i type="logical" name="LVEL"> F  </i>
   <i type="int" name="KINTER">     0</i>
   <i name="CSHIFT">      0.10000000</i>
   <i name="OMEGAMAX">     -1.00000000</i>
   <i name="DEG_THRESHOLD">      0.00200000</i>
   <i name="RTIME">     -0.10000000</i>
   <i name="WPLASMAI">      0.00000000</i>
   <v name="DFIELD">      0.00000000      0.00000000      0.00000000</v>
   <v name="WPLASMA">      0.00000000      0.00000000      0.00000000      0.00000000      0.00000000      0.00000000      0.00000000      0.00000000      0.00000000</v>
  </separator>
  <separator name="orbital magnetization" >
   <i type="logical" name="NUCIND"> F  </i>
   <v name="MAGPOS">      0.00000000      0.00000000      0.00000000</v>
   <i type="logical" name="LNICSALL"> T  </i>
   <i type="logical" name="ORBITALMAG"> F  </i>
   <i type="logical" name="LMAGBLOCH"> F  </i>
   <i type="logical" name="LCHIMAG"> F  </i>
   <i type="logical" name="LGAUGE"> T  </i>
   <i type="int" name="MAGATOM">     0</i>
   <v name="MAGDIPOL">      0.00000000      0.00000000      0.00000000</v>
   <v name="AVECCONST">      0.00000000      0.00000000      0.00000000</v>
  </separator>
  <separator name="response functions" >
   <i type="logical" name="LADDER"> F  </i>
   <i type="logical" name="LRPAFORCE"> F  </i>
   <i type="logical" name="LFXC"> F  </i>
   <i type="logical" name="LHARTREE"> T  </i>
   <i type="int" name="IBSE">     0</i>
   <v type="int" name="KPOINT">    -1     0     0     0</v>
   <i type="logical" name="LTCTE"> F  </i>
   <i type="logical" name="LTETE"> F  </i>
   <i type="logical" name="LTRIPLET"> F  </i>
   <i type="logical" name="LFXCEPS"> F  </i>
   <i type="logical" name="LFXHEG"> F  </i>
   <i type="int" name="NATURALO">     2</i>
   <i type="logical" name="L2ORDER"> F  </i>
   <i type="logical" name="LMP2LT"> F  </i>
   <i type="logical" name="LUSEW"> F  </i>
   <i name="ENCUTGW">     -2.00000000</i>
   <i name="ENCUTGWSOFT">     -2.00000000</i>
   <i name="ENCUTLF">     -1.00000000</i>
   <i type="int" name="LMAXMP2">    -1</i>
   <i name="SCISSOR">      0.00000000</i>
   <i type="int" name="NOMEGA">     0</i>
   <i type="int" name="NOMEGAR">     0</i>
   <i type="int" name="NBANDSGW">    -1</i>
   <i type="int" name="NBANDSO">    -1</i>
   <i type="int" name="NBANDSV">    -1</i>
   <i type="int" name="NELM">    50</i>
   <i type="int" name="NELMHF">     1</i>
   <i type="int" name="DIM">     3</i>
   <i type="int" name="ANTIRES">     0</i>
   <i name="OMEGAMAX">    -30.00000000</i>
   <i name="OMEGAMIN">    -30.00000000</i>
   <i name="OMEGATL">   -200.00000000</i>
   <i type="int" name="OMEGAGRID">   140</i>
   <i name="CSHIFT">     -0.10000000</i>
   <i type="logical" name="SELFENERGY"> F  </i>
   <i type="logical" name="LSPECTRAL"> F  </i>
   <i type="logical" name="LSPECTRALGW"> F  </i>
   <i type="logical" name="LSINGLES"> F  </i>
   <i type="logical" name="LFERMIGW"> F  </i>
   <i type="logical" name="ODDONLYGW"> F  </i>
   <i type="logical" name="EVENONLYGW"> F  </i>
   <i type="int" name="NKREDLFX">     1</i>
   <i type="int" name="NKREDLFY">     1</i>
   <i type="int" name="NKREDLFZ">     1</i>
   <i type="int" name="MAXMEM">  2800</i>
   <i type="int" name="TELESCOPE">     0</i>
   <i type="int" name="TAUPAR">     1</i>
   <i type="int" name="OMEGAPAR">    -1</i>
   <i name="LAMBDA">      1.00000000</i>
  </separator>
  <separator name="External order field" >
   <i name="OFIELD_KAPPA">      0.00000000</i>
   <v name="OFIELD_K">      0.00000000      0.00000000      0.00000000</v>
   <i name="OFIELD_Q6_NEAR">      0.00000000</i>
   <i name="OFIELD_Q6_FAR">      0.00000000</i>
   <i name="OFIELD_A">      0.00000000</i>
  </separator>
 </parameters>
 <atominfo>
  <atoms>       1 </atoms>
  <types>       1 </types>
  <array name="atoms" >
   <dimension dim="1">ion</dimension>
   <field type="string">element</field>
   <field type="int">atomtype</field>
   <set>
    <rc><c>Og</c><c>   1</c></rc>
   </set>
  </array>
  <array name="atomtypes" >
   <dimension dim="1">type</dimension>
   <field type="int">atomspertype</field>
   <field type="string">element</field>
   <field>mass</field>
   <field>valence</field>
   <field type="string">pseudopotential</field>
   <set>
    <rc><c>   1</c><c>Og</c><c>      0.01000000</c><c>     18.00000000</c><c>  PAW Og, JanMewes Oct 18               </c></rc>
   </set>
  </array>
 </atominfo>
 <structure name="initialpos" >
  <crystal>
   <varray name="basis" >
    <v>       4.39635018       0.00000000       0.00000000 </v>
    <v>       2.19817509       3.80735094      -0.00000000 </v>
    <v>       2.19817509       1.26911698       3.58960489 </v>
   </varray>
   <i name="volume">     60.08441465 </i>
   <varray name="rec_basis" >
    <v>       0.22746141      -0.13132490      -0.09286073 </v>
    <v>       0.00000000       0.26264981      -0.09286073 </v>
    <v>      -0.00000000       0.00000000       0.27858219 </v>
   </varray>
  </crystal>
  <varray name="positions" >
   <v>       0.00000000       0.00000000       0.00000000 </v>
  </varray>
  <varray name="velocities" >
   <v>       0.00000000       0.00000000       0.00000000 </v>
  </varray>
 </structure>
 <calculation>
  <scstep>
   <time name="diag">  186.46  186.37</time>
   <time name="total">  186.56  186.48</time>
   <energy>
    <i name="alphaZ">     63.49827359 </i>
    <i name="ewald">  -1720.24414233 </i>
    <i name="hartreedc">   -686.03602413 </i>
    <i name="XCdc">    -68.77930283 </i>
    <i name="pawpsdc">   2336.03462383 </i>
    <i name="pawaedc">  -2260.63170096 </i>
    <i name="eentropy">     -0.00000328 </i>
    <i name="bandstr">   -316.94002981 </i>
    <i name="atom">   2639.90492407 </i>
    <i name="e_fr_energy">    -13.19338184 </i>
    <i name="e_wo_entrp">    -13.19337856 </i>
    <i name="e_0_energy">    -13.19338020 </i>
   </energy>
  </scstep>
  <scstep>
   <time name="diag">  186.11  186.02</time>
   <time name="total">  186.13  186.04</time>
   <energy>
    <i name="e_fr_energy">    -13.19338184 </i>
    <i name="e_wo_entrp">    -13.19337856 </i>
    <i name="e_0_energy">    -13.19338020 </i>
   </energy>
  </scstep>
  <scstep>
   <time name="diag">  185.88  185.79</time>
   <time name="total">  185.90  185.81</time>
   <energy>
    <i name="e_fr_energy">    -13.19338184 </i>
    <i name="e_wo_entrp">    -13.19337856 </i>
    <i name="e_0_energy">    -13.19338020 </i>
   </energy>
  </scstep>
  <scstep>
   <time name="diag">  186.15  186.07</time>
   <time name="total">  186.17  186.09</time>
   <energy>
    <i name="e_fr_energy">    -13.19338184 </i>
    <i name="e_wo_entrp">    -13.19337856 </i>
    <i name="e_0_energy">    -13.19338020 </i>
   </energy>
  </scstep>
  <scstep>
   <time name="diag">  186.19  186.10</time>
   <time name="total">  186.39  186.30</time>
   <energy>
    <i name="e_fr_energy">    -13.19338184 </i>
    <i name="e_wo_entrp">    -13.19337856 </i>
    <i name="e_0_energy">    -13.19338020 </i>
   </energy>
  </scstep>
  <scstep>
   <time name="diag">  186.48  186.38</time>
   <time name="total">  186.58  186.49</time>
   <energy>
    <i name="alphaZ">     63.49827359 </i>
    <i name="ewald">  -1720.24414233 </i>
    <i name="hartreedc">   -686.03601528 </i>
    <i name="XCdc">    -68.77930322 </i>
    <i name="pawpsdc">   2336.03454565 </i>
    <i name="pawaedc">  -2260.63162132 </i>
    <i name="eentropy">     -0.00000327 </i>
    <i name="bandstr">   -316.94003975 </i>
    <i name="atom">   2639.90492407 </i>
    <i name="e_fr_energy">    -13.19338185 </i>
    <i name="e_wo_entrp">    -13.19337858 </i>
    <i name="e_0_energy">    -13.19338021 </i>
   </energy>
  </scstep>
  <structure>
   <crystal>
    <varray name="basis" >
     <v>       4.39635018       0.00000000       0.00000000 </v>
     <v>       2.19817509       3.80735094      -0.00000000 </v>
     <v>       2.19817509       1.26911698       3.58960489 </v>
    </varray>
    <i name="volume">     60.08441465 </i>
    <varray name="rec_basis" >
     <v>       0.22746141      -0.13132490      -0.09286073 </v>
     <v>       0.00000000       0.26264981      -0.09286073 </v>
     <v>      -0.00000000       0.00000000       0.27858219 </v>
    </varray>
   </crystal>
   <varray name="positions" >
    <v>       0.00000000       0.00000000       0.00000000 </v>
   </varray>
  </structure>
  <varray name="forces" >
   <v>      -0.00000000      -0.00000000      -0.00000000 </v>
  </varray>
  <varray name="stress" >
   <v>    -145.71217818      -0.00003837      -0.00004670 </v>
   <v>      -0.00003841    -145.71211155      -0.00002772 </v>
   <v>      -0.00004657      -0.00002788    -145.71220608 </v>
  </varray>
  <energy>
   <i name="e_fr_energy">    -13.61686426 </i>
   <i name="e_wo_entrp">    -13.61686263 </i>
   <i name="e_0_energy">     -0.00000327 </i>
  </energy>
  <time name="totalsc"> 1126.58 1128.20</time>
  <eigenvalues>
   <array>
    <dimension dim="1">band</dimension>
    <dimension dim="2">kpoint</dimension>
    <dimension dim="3">spin</dimension>
    <field>eigene</field>
    <field>occ</field>
    <set>
     <set comment="spin 1">
      <set comment="kpoint 1">
       <r>  -30.7557    1.0000 </r>
       <r>  -30.7557    1.0000 </r>
       <r>  -30.7557    1.0000 </r>
       <r>  -30.7557    1.0000 </r>
       <r>  -24.0915    1.0000 </r>
       <r>  -24.0914    1.0000 </r>
       <r>  -24.0844    1.0000 </r>
       <r>  -24.0844    1.0000 </r>
       <r>  -24.0844    1.0000 </r>
       <r>  -24.0844    1.0000 </r>
       <r>  -20.4717    1.0000 </r>
       <r>  -20.4717    1.0000 </r>
       <r>   -7.2241    1.0000 </r>
       <r>   -7.2240    1.0000 </r>
       <r>    3.4475    1.0000 </r>
       <r>    3.4475    1.0000 </r>
       <r>    3.5575    0.5610 </r>
       <r>    3.5576    0.5200 </r>
       <r>    3.5577    0.4800 </r>
       <r>    3.5578    0.4390 </r>
       <r>   10.5134    0.0000 </r>
       <r>   10.5134    0.0000 </r>
       <r>   10.5135    0.0000 </r>
       <r>   10.5135    0.0000 </r>
       <r>   10.8443    0.0000 </r>
       <r>   10.8443    0.0000 </r>
       <r>   10.9222    0.0000 </r>
       <r>   10.9223    0.0000 </r>
       <r>   12.8842    0.0000 </r>
       <r>   12.8842    0.0000 </r>
       <r>   13.1825    0.0000 </r>
       <r>   13.1825    0.0000 </r>
       <r>   13.1826    0.0000 </r>
       <r>   13.1826    0.0000 </r>
       <r>   13.8695    0.0000 </r>
       <r>   13.8695    0.0000 </r>
       <r>   13.8696    0.0000 </r>
       <r>   13.8696    0.0000 </r>
       <r>   15.8278    0.0000 </r>
       <r>   15.8278    0.0000 </r>
       <r>   19.9223    0.0000 </r>
       <r>   19.9223    0.0000 </r>
       <r>   19.9223    0.0000 </r>
       <r>   19.9224    0.0000 </r>
       <r>   19.9224    0.0000 </r>
       <r>   19.9224    0.0000 </r>
       <r>   22.1455    0.0000 </r>
       <r>   22.1456    0.0000 </r>
       <r>   25.5599    0.0000 </r>
       <r>   25.5600    0.0000 </r>
       <r>   25.5600    0.0000 </r>
       <r>   25.5600    0.0000 </r>
       <r>   25.7805    0.0000 </r>
       <r>   25.7805    0.0000 </r>
       <r>   27.0077    0.0000 </r>
       <r>   27.0077    0.0000 </r>
       <r>   28.6273    0.0000 </r>
       <r>   28.6273    0.0000 </r>
       <r>   28.6274    0.0000 </r>
       <r>   28.6274    0.0000 </r>
       <r>   29.1785    0.0000 </r>
       <r>   29.1785    0.0000 </r>
       <r>   29.4745    0.0000 </r>
       <r>   29.4745    0.0000 </r>
       <r>   29.4745    0.0000 </r>
       <r>   29.4745    0.0000 </r>
       <r>   29.9030    0.0000 </r>
       <r>   29.9031    0.0000 </r>
       <r>   30.6520    0.0000 </r>
       <r>   30.6520    0.0000 </r>
       <r>   30.6520    0.0000 </r>
       <r>   30.6521    0.0000 </r>
       <r>   36.8199    0.0000 </r>
       <r>   36.8199    0.0000 </r>
       <r>   36.8199    0.0000 </r>
       <r>   36.8199    0.0000 </r>
       <r>   36.8199    0.0000 </r>
       <r>   36.8199    0.0000 </r>
       <r>   37.4861    0.0000 </r>
       <r>   37.4862    0.0000 </r>
       <r>   37.7207    0.0000 </r>
       <r>   37.7207    0.0000 </r>
       <r>   37.7207    0.0000 </r>
       <r>   37.7208    0.0000 </r>
       <r>   37.7208    0.0000 </r>
       <r>   37.7208    0.0000 </r>
       <r>   40.0835    0.0000 </r>
       <r>   40.0835    0.0000 </r>
       <r>   40.0835    0.0000 </r>
       <r>   40.0835    0.0000 </r>
       <r>   40.2903    0.0000 </r>
       <r>   40.2903    0.0000 </r>
       <r>   41.3831    0.0000 </r>
       <r>   41.3831    0.0000 </r>
       <r>   41.5995    0.0000 </r>
       <r>   41.5995    0.0000 </r>
       <r>   41.5996    0.0000 </r>
       <r>   41.5996    0.0000 </r>
       <r>   42.1076    0.0000 </r>
       <r>   42.1076    0.0000 </r>
       <r>   42.1076    0.0000 </r>
       <r>   42.1076    0.0000 </r>
       <r>   42.7270    0.0000 </r>
       <r>   42.7270    0.0000 </r>
       <r>   42.7271    0.0000 </r>
       <r>   42.7271    0.0000 </r>
       <r>   42.8654    0.0000 </r>
       <r>   42.8654    0.0000 </r>
       <r>   42.8654    0.0000 </r>
       <r>   42.8655    0.0000 </r>
       <r>   43.0774    0.0000 </r>
       <r>   43.0775    0.0000 </r>
       <r>   44.0190    0.0000 </r>
       <r>   44.0191    0.0000 </r>
       <r>   44.5496    0.0000 </r>
       <r>   44.5496    0.0000 </r>
       <r>   44.9249    0.0000 </r>
       <r>   44.9249    0.0000 </r>
       <r>   44.9249    0.0000 </r>
       <r>   44.9249    0.0000 </r>
       <r>   45.4988    0.0000 </r>
       <r>   45.4988    0.0000 </r>
       <r>   45.8342    0.0000 </r>
       <r>   45.8342    0.0000 </r>
       <r>   45.8342    0.0000 </r>
       <r>   45.8342    0.0000 </r>
       <r>   45.9483    0.0000 </r>
       <r>   45.9484    0.0000 </r>
       <r>   49.9823    0.0000 </r>
       <r>   49.9824    0.0000 </r>
       <r>   49.9824    0.0000 </r>
       <r>   49.9824    0.0000 </r>
       <r>   49.9824    0.0000 </r>
       <r>   49.9824    0.0000 </r>
       <r>   52.6929    0.0000 </r>
       <r>   52.6929    0.0000 </r>
       <r>   52.8546    0.0000 </r>
       <r>   52.8547    0.0000 </r>
       <r>   52.8547    0.0000 </r>
       <r>   52.8547    0.0000 </r>
       <r>   57.0235    0.0000 </r>
       <r>   57.0235    0.0000 </r>
       <r>   57.1187    0.0000 </r>
       <r>   57.1187    0.0000 </r>
       <r>   57.1187    0.0000 </r>
       <r>   57.1187    0.0000 </r>
       <r>   57.4580    0.0000 </r>
       <r>   57.4580    0.0000 </r>
       <r>   63.6394    0.0000 </r>
       <r>   63.6394    0.0000 </r>
       <r>   64.4580    0.0000 </r>
       <r>   64.4580    0.0000 </r>
       <r>   64.4580    0.0000 </r>
       <r>   64.4581    0.0000 </r>
       <r>   64.5298    0.0000 </r>
       <r>   64.5298    0.0000 </r>
       <r>   64.6450    0.0000 </r>
       <r>   64.6450    0.0000 </r>
       <r>   64.6450    0.0000 </r>
       <r>   64.6450    0.0000 </r>
       <r>   65.8127    0.0000 </r>
       <r>   65.8128    0.0000 </r>
       <r>   65.8128    0.0000 </r>
       <r>   65.8128    0.0000 </r>
       <r>   66.4756    0.0000 </r>
       <r>   66.4756    0.0000 </r>
       <r>   66.4756    0.0000 </r>
       <r>   66.4757    0.0000 </r>
       <r>   66.4757    0.0000 </r>
       <r>   66.4757    0.0000 </r>
       <r>   68.4505    0.0000 </r>
       <r>   68.4505    0.0000 </r>
       <r>   70.5828    0.0000 </r>
       <r>   70.5829    0.0000 </r>
       <r>   70.5829    0.0000 </r>
       <r>   70.5829    0.0000 </r>
       <r>   71.0905    0.0000 </r>
       <r>   71.0905    0.0000 </r>
       <r>   71.0906    0.0000 </r>
       <r>   71.0906    0.0000 </r>
       <r>   72.3018    0.0000 </r>
       <r>   72.3018    0.0000 </r>
       <r>   72.3018    0.0000 </r>
       <r>   72.3019    0.0000 </r>
       <r>   72.3019    0.0000 </r>
       <r>   72.3019    0.0000 </r>
       <r>   72.3542    0.0000 </r>
       <r>   72.3542    0.0000 </r>
       <r>   72.3542    0.0000 </r>
       <r>   72.3542    0.0000 </r>
       <r>   72.3542    0.0000 </r>
       <r>   72.3543    0.0000 </r>
       <r>   72.3551    0.0000 </r>
       <r>   72.3551    0.0000 </r>
       <r>   72.5592    0.0000 </r>
       <r>   72.5592    0.0000 </r>
      </set>
      <set comment="kpoint 2">
       <r>  -30.7490    1.0000 </r>
       <r>  -30.7490    1.0000 </r>
       <r>  -30.7363    1.0000 </r>
       <r>  -30.7363    1.0000 </r>
       <r>  -24.0847    1.0000 </r>
       <r>  -24.0847    1.0000 </r>
       <r>  -24.0744    1.0000 </r>
       <r>  -24.0743    1.0000 </r>
       <r>  -24.0735    1.0000 </r>
       <r>  -24.0735    1.0000 </r>
       <r>  -20.4539    1.0000 </r>
       <r>  -20.4539    1.0000 </r>
       <r>   -7.2852    1.0000 </r>
       <r>   -7.2852    1.0000 </r>
       <r>    2.1225    1.0000 </r>
       <r>    2.1226    1.0000 </r>
       <r>    3.4472    1.0000 </r>
       <r>    3.4473    1.0000 </r>
       <r>    4.9527    0.0000 </r>
       <r>    4.9527    0.0000 </r>
       <r>    9.5651    0.0000 </r>
       <r>    9.5652    0.0000 </r>
       <r>   10.6704    0.0000 </r>
       <r>   10.6704    0.0000 </r>
       <r>   10.9711    0.0000 </r>
       <r>   10.9711    0.0000 </r>
       <r>   11.9636    0.0000 </r>
       <r>   11.9636    0.0000 </r>
       <r>   12.2090    0.0000 </r>
       <r>   12.2091    0.0000 </r>
       <r>   12.3595    0.0000 </r>
       <r>   12.3595    0.0000 </r>
       <r>   13.0768    0.0000 </r>
       <r>   13.0768    0.0000 </r>
       <r>   15.1371    0.0000 </r>
       <r>   15.1371    0.0000 </r>
       <r>   15.2792    0.0000 </r>
       <r>   15.2793    0.0000 </r>
       <r>   17.1882    0.0000 </r>
       <r>   17.1882    0.0000 </r>
       <r>   19.5662    0.0000 </r>
       <r>   19.5663    0.0000 </r>
       <r>   19.6607    0.0000 </r>
       <r>   19.6608    0.0000 </r>
       <r>   19.9726    0.0000 </r>
       <r>   19.9727    0.0000 </r>
       <r>   21.3000    0.0000 </r>
       <r>   21.3000    0.0000 </r>
       <r>   24.6159    0.0000 </r>
       <r>   24.6160    0.0000 </r>
       <r>   25.0855    0.0000 </r>
       <r>   25.0856    0.0000 </r>
       <r>   25.4170    0.0000 </r>
       <r>   25.4170    0.0000 </r>
       <r>   26.5312    0.0000 </r>
       <r>   26.5312    0.0000 </r>
       <r>   27.2762    0.0000 </r>
       <r>   27.2763    0.0000 </r>
       <r>   28.1000    0.0000 </r>
       <r>   28.1000    0.0000 </r>
       <r>   29.2374    0.0000 </r>
       <r>   29.2374    0.0000 </r>
       <r>   29.2998    0.0000 </r>
       <r>   29.2998    0.0000 </r>
       <r>   29.8528    0.0000 </r>
       <r>   29.8528    0.0000 </r>
       <r>   29.9854    0.0000 </r>
       <r>   29.9854    0.0000 </r>
       <r>   31.8493    0.0000 </r>
       <r>   31.8493    0.0000 </r>
       <r>   34.1825    0.0000 </r>
       <r>   34.1825    0.0000 </r>
       <r>   34.9242    0.0000 </r>
       <r>   34.9243    0.0000 </r>
       <r>   35.7147    0.0000 </r>
       <r>   35.7147    0.0000 </r>
       <r>   35.7830    0.0000 </r>
       <r>   35.7831    0.0000 </r>
       <r>   35.9046    0.0000 </r>
       <r>   35.9046    0.0000 </r>
       <r>   37.8051    0.0000 </r>
       <r>   37.8051    0.0000 </r>
       <r>   38.2351    0.0000 </r>
       <r>   38.2352    0.0000 </r>
       <r>   38.4268    0.0000 </r>
       <r>   38.4268    0.0000 </r>
       <r>   38.7899    0.0000 </r>
       <r>   38.7899    0.0000 </r>
       <r>   39.1673    0.0000 </r>
       <r>   39.1673    0.0000 </r>
       <r>   39.4441    0.0000 </r>
       <r>   39.4442    0.0000 </r>
       <r>   39.5935    0.0000 </r>
       <r>   39.5935    0.0000 </r>
       <r>   40.0556    0.0000 </r>
       <r>   40.0556    0.0000 </r>
       <r>   40.4131    0.0000 </r>
       <r>   40.4132    0.0000 </r>
       <r>   41.5818    0.0000 </r>
       <r>   41.5819    0.0000 </r>
       <r>   42.0193    0.0000 </r>
       <r>   42.0193    0.0000 </r>
       <r>   42.1555    0.0000 </r>
       <r>   42.1555    0.0000 </r>
       <r>   42.7980    0.0000 </r>
       <r>   42.7980    0.0000 </r>
       <r>   43.5584    0.0000 </r>
       <r>   43.5584    0.0000 </r>
       <r>   43.5936    0.0000 </r>
       <r>   43.5937    0.0000 </r>
       <r>   43.7157    0.0000 </r>
       <r>   43.7157    0.0000 </r>
       <r>   44.9492    0.0000 </r>
       <r>   44.9493    0.0000 </r>
       <r>   45.3783    0.0000 </r>
       <r>   45.3783    0.0000 </r>
       <r>   45.7268    0.0000 </r>
       <r>   45.7268    0.0000 </r>
       <r>   46.7227    0.0000 </r>
       <r>   46.7227    0.0000 </r>
       <r>   47.6463    0.0000 </r>
       <r>   47.6463    0.0000 </r>
       <r>   47.7341    0.0000 </r>
       <r>   47.7341    0.0000 </r>
       <r>   48.2715    0.0000 </r>
       <r>   48.2716    0.0000 </r>
       <r>   50.0584    0.0000 </r>
       <r>   50.0585    0.0000 </r>
       <r>   50.5738    0.0000 </r>
       <r>   50.5738    0.0000 </r>
       <r>   50.8312    0.0000 </r>
       <r>   50.8312    0.0000 </r>
       <r>   50.9359    0.0000 </r>
       <r>   50.9359    0.0000 </r>
       <r>   52.0145    0.0000 </r>
       <r>   52.0145    0.0000 </r>
       <r>   52.4463    0.0000 </r>
       <r>   52.4463    0.0000 </r>
       <r>   52.5170    0.0000 </r>
       <r>   52.5170    0.0000 </r>
       <r>   56.3515    0.0000 </r>
       <r>   56.3515    0.0000 </r>
       <r>   57.9840    0.0000 </r>
       <r>   57.9840    0.0000 </r>
       <r>   58.0216    0.0000 </r>
       <r>   58.0216    0.0000 </r>
       <r>   58.6352    0.0000 </r>
       <r>   58.6353    0.0000 </r>
       <r>   60.9388    0.0000 </r>
       <r>   60.9389    0.0000 </r>
       <r>   61.4077    0.0000 </r>
       <r>   61.4077    0.0000 </r>
       <r>   62.7448    0.0000 </r>
       <r>   62.7448    0.0000 </r>
       <r>   62.9012    0.0000 </r>
       <r>   62.9013    0.0000 </r>
       <r>   63.6390    0.0000 </r>
       <r>   63.6390    0.0000 </r>
       <r>   64.6047    0.0000 </r>
       <r>   64.6048    0.0000 </r>
       <r>   64.6406    0.0000 </r>
       <r>   64.6407    0.0000 </r>
       <r>   65.5214    0.0000 </r>
       <r>   65.5215    0.0000 </r>
       <r>   65.5973    0.0000 </r>
       <r>   65.5973    0.0000 </r>
       <r>   67.9116    0.0000 </r>
       <r>   67.9117    0.0000 </r>
       <r>   68.3206    0.0000 </r>
       <r>   68.3206    0.0000 </r>
       <r>   68.3446    0.0000 </r>
       <r>   68.3447    0.0000 </r>
       <r>   68.7314    0.0000 </r>
       <r>   68.7314    0.0000 </r>
       <r>   68.7903    0.0000 </r>
       <r>   68.7903    0.0000 </r>
       <r>   69.2645    0.0000 </r>
       <r>   69.2646    0.0000 </r>
       <r>   69.8197    0.0000 </r>
       <r>   69.8197    0.0000 </r>
       <r>   69.9130    0.0000 </r>
       <r>   69.9130    0.0000 </r>
       <r>   70.0825    0.0000 </r>
       <r>   70.0825    0.0000 </r>
       <r>   71.1834    0.0000 </r>
       <r>   71.1834    0.0000 </r>
       <r>   71.2181    0.0000 </r>
       <r>   71.2181    0.0000 </r>
       <r>   72.2301    0.0000 </r>
       <r>   72.2302    0.0000 </r>
       <r>   72.5188    0.0000 </r>
       <r>   72.5188    0.0000 </r>
       <r>   73.2348    0.0000 </r>
       <r>   73.2348    0.0000 </r>
       <r>   73.2917    0.0000 </r>
       <r>   73.2917    0.0000 </r>
      </set>
      <set comment="kpoint 3">
       <r>  -30.7435    1.0000 </r>
       <r>  -30.7435    1.0000 </r>
       <r>  -30.7355    1.0000 </r>
       <r>  -30.7355    1.0000 </r>
       <r>  -24.0791    1.0000 </r>
       <r>  -24.0791    1.0000 </r>
       <r>  -24.0721    1.0000 </r>
       <r>  -24.0720    1.0000 </r>
       <r>  -24.0713    1.0000 </r>
       <r>  -24.0713    1.0000 </r>
       <r>  -20.4136    1.0000 </r>
       <r>  -20.4136    1.0000 </r>
       <r>   -7.4231    1.0000 </r>
       <r>   -7.4230    1.0000 </r>
       <r>    1.1066    1.0000 </r>
       <r>    1.1067    1.0000 </r>
       <r>    3.2205    1.0000 </r>
       <r>    3.2206    1.0000 </r>
       <r>    5.8104    0.0000 </r>
       <r>    5.8104    0.0000 </r>
       <r>    9.7120    0.0000 </r>
       <r>    9.7121    0.0000 </r>
       <r>   10.4136    0.0000 </r>
       <r>   10.4136    0.0000 </r>
       <r>   10.8110    0.0000 </r>
       <r>   10.8111    0.0000 </r>
       <r>   11.1118    0.0000 </r>
       <r>   11.1119    0.0000 </r>
       <r>   12.5160    0.0000 </r>
       <r>   12.5160    0.0000 </r>
       <r>   12.7678    0.0000 </r>
       <r>   12.7678    0.0000 </r>
       <r>   15.4102    0.0000 </r>
       <r>   15.4102    0.0000 </r>
       <r>   16.8696    0.0000 </r>
       <r>   16.8696    0.0000 </r>
       <r>   17.0463    0.0000 </r>
       <r>   17.0464    0.0000 </r>
       <r>   18.1586    0.0000 </r>
       <r>   18.1586    0.0000 </r>
       <r>   18.6484    0.0000 </r>
       <r>   18.6484    0.0000 </r>
       <r>   19.2706    0.0000 </r>
       <r>   19.2707    0.0000 </r>
       <r>   19.7164    0.0000 </r>
       <r>   19.7164    0.0000 </r>
       <r>   20.0991    0.0000 </r>
       <r>   20.0992    0.0000 </r>
       <r>   23.3064    0.0000 </r>
       <r>   23.3064    0.0000 </r>
       <r>   24.6318    0.0000 </r>
       <r>   24.6318    0.0000 </r>
       <r>   24.7728    0.0000 </r>
       <r>   24.7728    0.0000 </r>
       <r>   25.9410    0.0000 </r>
       <r>   25.9410    0.0000 </r>
       <r>   26.4587    0.0000 </r>
       <r>   26.4587    0.0000 </r>
       <r>   27.0890    0.0000 </r>
       <r>   27.0890    0.0000 </r>
       <r>   29.2323    0.0000 </r>
       <r>   29.2323    0.0000 </r>
       <r>   29.9667    0.0000 </r>
       <r>   29.9668    0.0000 </r>
       <r>   30.6346    0.0000 </r>
       <r>   30.6347    0.0000 </r>
       <r>   30.7928    0.0000 </r>
       <r>   30.7928    0.0000 </r>
       <r>   31.5470    0.0000 </r>
       <r>   31.5470    0.0000 </r>
       <r>   31.8200    0.0000 </r>
       <r>   31.8200    0.0000 </r>
       <r>   33.2662    0.0000 </r>
       <r>   33.2662    0.0000 </r>
       <r>   34.1187    0.0000 </r>
       <r>   34.1187    0.0000 </r>
       <r>   34.6764    0.0000 </r>
       <r>   34.6764    0.0000 </r>
       <r>   35.3265    0.0000 </r>
       <r>   35.3265    0.0000 </r>
       <r>   35.4132    0.0000 </r>
       <r>   35.4133    0.0000 </r>
       <r>   35.6132    0.0000 </r>
       <r>   35.6132    0.0000 </r>
       <r>   38.3793    0.0000 </r>
       <r>   38.3794    0.0000 </r>
       <r>   38.3861    0.0000 </r>
       <r>   38.3862    0.0000 </r>
       <r>   38.6403    0.0000 </r>
       <r>   38.6404    0.0000 </r>
       <r>   39.6272    0.0000 </r>
       <r>   39.6273    0.0000 </r>
       <r>   39.8133    0.0000 </r>
       <r>   39.8134    0.0000 </r>
       <r>   40.7152    0.0000 </r>
       <r>   40.7153    0.0000 </r>
       <r>   41.5679    0.0000 </r>
       <r>   41.5679    0.0000 </r>
       <r>   41.6352    0.0000 </r>
       <r>   41.6352    0.0000 </r>
       <r>   42.2425    0.0000 </r>
       <r>   42.2425    0.0000 </r>
       <r>   42.8891    0.0000 </r>
       <r>   42.8891    0.0000 </r>
       <r>   43.1021    0.0000 </r>
       <r>   43.1021    0.0000 </r>
       <r>   44.2100    0.0000 </r>
       <r>   44.2100    0.0000 </r>
       <r>   44.5826    0.0000 </r>
       <r>   44.5827    0.0000 </r>
       <r>   44.6066    0.0000 </r>
       <r>   44.6066    0.0000 </r>
       <r>   45.7938    0.0000 </r>
       <r>   45.7939    0.0000 </r>
       <r>   48.9373    0.0000 </r>
       <r>   48.9373    0.0000 </r>
       <r>   49.2967    0.0000 </r>
       <r>   49.2967    0.0000 </r>
       <r>   49.5239    0.0000 </r>
       <r>   49.5239    0.0000 </r>
       <r>   49.7779    0.0000 </r>
       <r>   49.7779    0.0000 </r>
       <r>   49.9632    0.0000 </r>
       <r>   49.9633    0.0000 </r>
       <r>   50.1883    0.0000 </r>
       <r>   50.1883    0.0000 </r>
       <r>   50.4047    0.0000 </r>
       <r>   50.4048    0.0000 </r>
       <r>   51.8051    0.0000 </r>
       <r>   51.8051    0.0000 </r>
       <r>   51.8909    0.0000 </r>
       <r>   51.8909    0.0000 </r>
       <r>   52.4262    0.0000 </r>
       <r>   52.4262    0.0000 </r>
       <r>   53.8766    0.0000 </r>
       <r>   53.8766    0.0000 </r>
       <r>   54.4300    0.0000 </r>
       <r>   54.4300    0.0000 </r>
       <r>   54.9818    0.0000 </r>
       <r>   54.9818    0.0000 </r>
       <r>   55.5529    0.0000 </r>
       <r>   55.5529    0.0000 </r>
       <r>   55.5686    0.0000 </r>
       <r>   55.5687    0.0000 </r>
       <r>   57.5324    0.0000 </r>
       <r>   57.5324    0.0000 </r>
       <r>   58.7965    0.0000 </r>
       <r>   58.7965    0.0000 </r>
       <r>   58.9353    0.0000 </r>
       <r>   58.9353    0.0000 </r>
       <r>   59.5469    0.0000 </r>
       <r>   59.5470    0.0000 </r>
       <r>   60.3849    0.0000 </r>
       <r>   60.3849    0.0000 </r>
       <r>   60.4932    0.0000 </r>
       <r>   60.4932    0.0000 </r>
       <r>   62.1625    0.0000 </r>
       <r>   62.1625    0.0000 </r>
       <r>   62.1722    0.0000 </r>
       <r>   62.1722    0.0000 </r>
       <r>   63.6117    0.0000 </r>
       <r>   63.6117    0.0000 </r>
       <r>   63.6881    0.0000 </r>
       <r>   63.6881    0.0000 </r>
       <r>   64.2329    0.0000 </r>
       <r>   64.2329    0.0000 </r>
       <r>   65.8233    0.0000 </r>
       <r>   65.8234    0.0000 </r>
       <r>   65.9509    0.0000 </r>
       <r>   65.9509    0.0000 </r>
       <r>   66.0039    0.0000 </r>
       <r>   66.0039    0.0000 </r>
       <r>   66.5750    0.0000 </r>
       <r>   66.5750    0.0000 </r>
       <r>   68.0922    0.0000 </r>
       <r>   68.0922    0.0000 </r>
       <r>   68.1190    0.0000 </r>
       <r>   68.1190    0.0000 </r>
       <r>   69.8131    0.0000 </r>
       <r>   69.8132    0.0000 </r>
       <r>   69.9179    0.0000 </r>
       <r>   69.9179    0.0000 </r>
       <r>   70.1346    0.0000 </r>
       <r>   70.1346    0.0000 </r>
       <r>   70.6323    0.0000 </r>
       <r>   70.6323    0.0000 </r>
       <r>   70.6822    0.0000 </r>
       <r>   70.6822    0.0000 </r>
       <r>   71.0681    0.0000 </r>
       <r>   71.0681    0.0000 </r>
       <r>   71.0733    0.0000 </r>
       <r>   71.0733    0.0000 </r>
       <r>   71.7145    0.0000 </r>
       <r>   71.7145    0.0000 </r>
       <r>   71.8925    0.0000 </r>
       <r>   71.8926    0.0000 </r>
      </set>
      <set comment="kpoint 4">
       <r>  -30.7416    1.0000 </r>
       <r>  -30.7415    1.0000 </r>
       <r>  -30.7343    1.0000 </r>
       <r>  -30.7343    1.0000 </r>
       <r>  -24.0742    1.0000 </r>
       <r>  -24.0742    1.0000 </r>
       <r>  -24.0713    1.0000 </r>
       <r>  -24.0713    1.0000 </r>
       <r>  -24.0708    1.0000 </r>
       <r>  -24.0708    1.0000 </r>
       <r>  -20.3807    1.0000 </r>
       <r>  -20.3807    1.0000 </r>
       <r>   -7.5340    1.0000 </r>
       <r>   -7.5340    1.0000 </r>
       <r>    0.5753    1.0000 </r>
       <r>    0.5754    1.0000 </r>
       <r>    3.0557    1.0000 </r>
       <r>    3.0558    1.0000 </r>
       <r>    5.9259    0.0000 </r>
       <r>    5.9259    0.0000 </r>
       <r>   10.0281    0.0000 </r>
       <r>   10.0281    0.0000 </r>
       <r>   10.2070    0.0000 </r>
       <r>   10.2071    0.0000 </r>
       <r>   10.4255    0.0000 </r>
       <r>   10.4256    0.0000 </r>
       <r>   11.3904    0.0000 </r>
       <r>   11.3904    0.0000 </r>
       <r>   13.8290    0.0000 </r>
       <r>   13.8290    0.0000 </r>
       <r>   14.0564    0.0000 </r>
       <r>   14.0564    0.0000 </r>
       <r>   15.9997    0.0000 </r>
       <r>   15.9997    0.0000 </r>
       <r>   16.9781    0.0000 </r>
       <r>   16.9781    0.0000 </r>
       <r>   17.0478    0.0000 </r>
       <r>   17.0479    0.0000 </r>
       <r>   17.7142    0.0000 </r>
       <r>   17.7143    0.0000 </r>
       <r>   18.4086    0.0000 </r>
       <r>   18.4087    0.0000 </r>
       <r>   18.4224    0.0000 </r>
       <r>   18.4225    0.0000 </r>
       <r>   20.2056    0.0000 </r>
       <r>   20.2057    0.0000 </r>
       <r>   22.1297    0.0000 </r>
       <r>   22.1297    0.0000 </r>
       <r>   23.3504    0.0000 </r>
       <r>   23.3504    0.0000 </r>
       <r>   24.2842    0.0000 </r>
       <r>   24.2842    0.0000 </r>
       <r>   24.7555    0.0000 </r>
       <r>   24.7555    0.0000 </r>
       <r>   25.1445    0.0000 </r>
       <r>   25.1445    0.0000 </r>
       <r>   26.3199    0.0000 </r>
       <r>   26.3199    0.0000 </r>
       <r>   26.5869    0.0000 </r>
       <r>   26.5869    0.0000 </r>
       <r>   27.9471    0.0000 </r>
       <r>   27.9471    0.0000 </r>
       <r>   29.0503    0.0000 </r>
       <r>   29.0503    0.0000 </r>
       <r>   30.0840    0.0000 </r>
       <r>   30.0840    0.0000 </r>
       <r>   30.5978    0.0000 </r>
       <r>   30.5979    0.0000 </r>
       <r>   30.8232    0.0000 </r>
       <r>   30.8233    0.0000 </r>
       <r>   31.4321    0.0000 </r>
       <r>   31.4321    0.0000 </r>
       <r>   31.7310    0.0000 </r>
       <r>   31.7310    0.0000 </r>
       <r>   32.3750    0.0000 </r>
       <r>   32.3750    0.0000 </r>
       <r>   33.2383    0.0000 </r>
       <r>   33.2384    0.0000 </r>
       <r>   33.4694    0.0000 </r>
       <r>   33.4695    0.0000 </r>
       <r>   34.9165    0.0000 </r>
       <r>   34.9165    0.0000 </r>
       <r>   35.6625    0.0000 </r>
       <r>   35.6625    0.0000 </r>
       <r>   38.4403    0.0000 </r>
       <r>   38.4403    0.0000 </r>
       <r>   38.4517    0.0000 </r>
       <r>   38.4517    0.0000 </r>
       <r>   39.0759    0.0000 </r>
       <r>   39.0759    0.0000 </r>
       <r>   39.2401    0.0000 </r>
       <r>   39.2401    0.0000 </r>
       <r>   39.5546    0.0000 </r>
       <r>   39.5546    0.0000 </r>
       <r>   40.8469    0.0000 </r>
       <r>   40.8470    0.0000 </r>
       <r>   41.1652    0.0000 </r>
       <r>   41.1653    0.0000 </r>
       <r>   43.1105    0.0000 </r>
       <r>   43.1105    0.0000 </r>
       <r>   44.6195    0.0000 </r>
       <r>   44.6195    0.0000 </r>
       <r>   44.7913    0.0000 </r>
       <r>   44.7913    0.0000 </r>
       <r>   44.9882    0.0000 </r>
       <r>   44.9883    0.0000 </r>
       <r>   45.2254    0.0000 </r>
       <r>   45.2254    0.0000 </r>
       <r>   46.5718    0.0000 </r>
       <r>   46.5719    0.0000 </r>
       <r>   47.2631    0.0000 </r>
       <r>   47.2631    0.0000 </r>
       <r>   47.4560    0.0000 </r>
       <r>   47.4561    0.0000 </r>
       <r>   47.5284    0.0000 </r>
       <r>   47.5284    0.0000 </r>
       <r>   49.7189    0.0000 </r>
       <r>   49.7189    0.0000 </r>
       <r>   50.4973    0.0000 </r>
       <r>   50.4973    0.0000 </r>
       <r>   50.9174    0.0000 </r>
       <r>   50.9174    0.0000 </r>
       <r>   51.1987    0.0000 </r>
       <r>   51.1987    0.0000 </r>
       <r>   51.7486    0.0000 </r>
       <r>   51.7487    0.0000 </r>
       <r>   51.7542    0.0000 </r>
       <r>   51.7543    0.0000 </r>
       <r>   52.4086    0.0000 </r>
       <r>   52.4086    0.0000 </r>
       <r>   52.7092    0.0000 </r>
       <r>   52.7092    0.0000 </r>
       <r>   53.2460    0.0000 </r>
       <r>   53.2460    0.0000 </r>
       <r>   53.7711    0.0000 </r>
       <r>   53.7711    0.0000 </r>
       <r>   54.0190    0.0000 </r>
       <r>   54.0190    0.0000 </r>
       <r>   54.1609    0.0000 </r>
       <r>   54.1610    0.0000 </r>
       <r>   56.2050    0.0000 </r>
       <r>   56.2050    0.0000 </r>
       <r>   56.4033    0.0000 </r>
       <r>   56.4033    0.0000 </r>
       <r>   56.7338    0.0000 </r>
       <r>   56.7339    0.0000 </r>
       <r>   58.0162    0.0000 </r>
       <r>   58.0163    0.0000 </r>
       <r>   58.1344    0.0000 </r>
       <r>   58.1344    0.0000 </r>
       <r>   58.5326    0.0000 </r>
       <r>   58.5326    0.0000 </r>
       <r>   58.9331    0.0000 </r>
       <r>   58.9331    0.0000 </r>
       <r>   59.4834    0.0000 </r>
       <r>   59.4834    0.0000 </r>
       <r>   59.7224    0.0000 </r>
       <r>   59.7225    0.0000 </r>
       <r>   61.2730    0.0000 </r>
       <r>   61.2730    0.0000 </r>
       <r>   62.7931    0.0000 </r>
       <r>   62.7931    0.0000 </r>
       <r>   63.1170    0.0000 </r>
       <r>   63.1171    0.0000 </r>
       <r>   64.2571    0.0000 </r>
[...]
       <r>    45.3201     0.0000     0.0000 </r>
       <r>    45.7017     0.0000     0.0000 </r>
       <r>    46.0833     0.0000     0.0000 </r>
       <r>    46.4648     0.0000     0.0000 </r>
       <r>    46.8464     0.0000     0.0000 </r>
       <r>    47.2280     0.0000     0.0000 </r>
       <r>    47.6096     0.0000     0.0000 </r>
       <r>    47.9912     0.0000     0.0000 </r>
       <r>    48.3728     0.0000     0.0000 </r>
       <r>    48.7544     0.0000     0.0000 </r>
       <r>    49.1360     0.0000     0.0000 </r>
       <r>    49.5176     0.0000     0.0000 </r>
       <r>    49.8992     0.0000     0.0000 </r>
       <r>    50.2808     0.0000     0.0000 </r>
       <r>    50.6624     0.0000     0.0000 </r>
       <r>    51.0440     0.0000     0.0000 </r>
       <r>    51.4256     0.0000     0.0000 </r>
       <r>    51.8072     0.0000     0.0000 </r>
       <r>    52.1887     0.0000     0.0000 </r>
       <r>    52.5703     0.0000     0.0000 </r>
       <r>    52.9519     0.0000     0.0000 </r>
       <r>    53.3335     0.0000     0.0000 </r>
       <r>    53.7151     0.0000     0.0000 </r>
       <r>    54.0967     0.0000     0.0000 </r>
       <r>    54.4783     0.0000     0.0000 </r>
       <r>    54.8599     0.0000     0.0000 </r>
       <r>    55.2415     0.0000     0.0000 </r>
       <r>    55.6231     0.0000     0.0000 </r>
       <r>    56.0047     0.0000     0.0000 </r>
       <r>    56.3863     0.0000     0.0000 </r>
       <r>    56.7679     0.0000     0.0000 </r>
       <r>    57.1495     0.0000     0.0000 </r>
       <r>    57.5310     0.0000     0.0000 </r>
       <r>    57.9126     0.0000     0.0000 </r>
       <r>    58.2942     0.0000     0.0000 </r>
       <r>    58.6758     0.0000     0.0000 </r>
       <r>    59.0574     0.0000     0.0000 </r>
       <r>    59.4390     0.0000     0.0000 </r>
       <r>    59.8206     0.0000     0.0000 </r>
       <r>    60.2022     0.0000     0.0000 </r>
       <r>    60.5838     0.0000     0.0000 </r>
       <r>    60.9654     0.0000     0.0000 </r>
       <r>    61.3470     0.0000     0.0000 </r>
       <r>    61.7286     0.0000     0.0000 </r>
       <r>    62.1102     0.0000     0.0000 </r>
       <r>    62.4918     0.0000     0.0000 </r>
       <r>    62.8734     0.0000     0.0000 </r>
       <r>    63.2549     0.0000     0.0000 </r>
       <r>    63.6365     0.0000     0.0000 </r>
       <r>    64.0181     0.0000     0.0000 </r>
       <r>    64.3997     0.0000     0.0000 </r>
       <r>    64.7813     0.0000     0.0000 </r>
       <r>    65.1629     0.0000     0.0000 </r>
       <r>    65.5445     0.0000     0.0000 </r>
       <r>    65.9261     0.0000     0.0000 </r>
       <r>    66.3077     0.0000     0.0000 </r>
       <r>    66.6893     0.0000     0.0000 </r>
       <r>    67.0709     0.0000     0.0000 </r>
       <r>    67.4525     0.0000     0.0000 </r>
       <r>    67.8341     0.0000     0.0000 </r>
       <r>    68.2157     0.0000     0.0000 </r>
       <r>    68.5972     0.0000     0.0000 </r>
       <r>    68.9788     0.0000     0.0000 </r>
       <r>    69.3604     0.0000     0.0000 </r>
       <r>    69.7420     0.0000     0.0000 </r>
       <r>    70.1236     0.0000     0.0000 </r>
       <r>    70.5052     0.0000     0.0000 </r>
       <r>    70.8868     0.0000     0.0000 </r>
       <r>    71.2684     0.0000     0.0000 </r>
       <r>    71.6500     0.0000     0.0000 </r>
       <r>    72.0316     0.0000     0.0000 </r>
       <r>    72.4132     0.0000     0.0000 </r>
       <r>    72.7948     0.0000     0.0000 </r>
       <r>    73.1764     0.0000     0.0000 </r>
       <r>    73.5580     0.0000     0.0000 </r>
       <r>    73.9395     0.0000     0.0000 </r>
       <r>    74.3211     0.0000     0.0000 </r>
       <r>    74.7027     0.0000     0.0000 </r>
       <r>    75.0843     0.0000     0.0000 </r>
       <r>    75.4659     0.0000     0.0000 </r>
       <r>    75.8475     0.0000     0.0000 </r>
       <r>    76.2291     0.0000     0.0000 </r>
       <r>    76.6107     0.0000     0.0000 </r>
       <r>    76.9923     0.0000     0.0000 </r>
       <r>    77.3739     0.0000     0.0000 </r>
       <r>    77.7555     0.0000     0.0000 </r>
       <r>    78.1371     0.0000     0.0000 </r>
       <r>    78.5187     0.0000     0.0000 </r>
      </set>
      <set comment="spin 4">
       <r>   -35.9593     0.0000     0.0000 </r>
       <r>   -35.5777     0.0000     0.0000 </r>
       <r>   -35.1961     0.0000     0.0000 </r>
       <r>   -34.8145     0.0000     0.0000 </r>
       <r>   -34.4329     0.0000     0.0000 </r>
       <r>   -34.0513     0.0000     0.0000 </r>
       <r>   -33.6697     0.0000     0.0000 </r>
       <r>   -33.2881     0.0000     0.0000 </r>
       <r>   -32.9065     0.0000     0.0000 </r>
       <r>   -32.5249     0.0000     0.0000 </r>
       <r>   -32.1433     0.0000     0.0000 </r>
       <r>   -31.7617     0.0000     0.0000 </r>
       <r>   -31.3801     0.0000     0.0000 </r>
       <r>   -30.9985     0.0000     0.0000 </r>
       <r>   -30.6169     0.0000     0.0000 </r>
       <r>   -30.2354     0.0000     0.0000 </r>
       <r>   -29.8538     0.0000     0.0000 </r>
       <r>   -29.4722     0.0000     0.0000 </r>
       <r>   -29.0906     0.0000     0.0000 </r>
       <r>   -28.7090     0.0000     0.0000 </r>
       <r>   -28.3274     0.0000     0.0000 </r>
       <r>   -27.9458     0.0000     0.0000 </r>
       <r>   -27.5642     0.0000     0.0000 </r>
       <r>   -27.1826     0.0000     0.0000 </r>
       <r>   -26.8010     0.0000     0.0000 </r>
       <r>   -26.4194     0.0000     0.0000 </r>
       <r>   -26.0378     0.0000     0.0000 </r>
       <r>   -25.6562     0.0000     0.0000 </r>
       <r>   -25.2746     0.0000     0.0000 </r>
       <r>   -24.8931     0.0000     0.0000 </r>
       <r>   -24.5115     0.0000     0.0000 </r>
       <r>   -24.1299     0.0000     0.0000 </r>
       <r>   -23.7483     0.0000     0.0000 </r>
       <r>   -23.3667     0.0000     0.0000 </r>
       <r>   -22.9851     0.0000     0.0000 </r>
       <r>   -22.6035     0.0000     0.0000 </r>
       <r>   -22.2219     0.0000     0.0000 </r>
       <r>   -21.8403     0.0000     0.0000 </r>
       <r>   -21.4587     0.0000     0.0000 </r>
       <r>   -21.0771     0.0000     0.0000 </r>
       <r>   -20.6955     0.0000     0.0000 </r>
       <r>   -20.3139     0.0000     0.0000 </r>
       <r>   -19.9323     0.0000     0.0000 </r>
       <r>   -19.5507     0.0000     0.0000 </r>
       <r>   -19.1692     0.0000     0.0000 </r>
       <r>   -18.7876     0.0000     0.0000 </r>
       <r>   -18.4060     0.0000     0.0000 </r>
       <r>   -18.0244     0.0000     0.0000 </r>
       <r>   -17.6428     0.0000     0.0000 </r>
       <r>   -17.2612     0.0000     0.0000 </r>
       <r>   -16.8796     0.0000     0.0000 </r>
       <r>   -16.4980     0.0000     0.0000 </r>
       <r>   -16.1164     0.0000     0.0000 </r>
       <r>   -15.7348     0.0000     0.0000 </r>
       <r>   -15.3532     0.0000     0.0000 </r>
       <r>   -14.9716     0.0000     0.0000 </r>
       <r>   -14.5900     0.0000     0.0000 </r>
       <r>   -14.2084     0.0000     0.0000 </r>
       <r>   -13.8269     0.0000     0.0000 </r>
       <r>   -13.4453     0.0000     0.0000 </r>
       <r>   -13.0637     0.0000     0.0000 </r>
       <r>   -12.6821     0.0000     0.0000 </r>
       <r>   -12.3005     0.0000     0.0000 </r>
       <r>   -11.9189     0.0000     0.0000 </r>
       <r>   -11.5373     0.0000     0.0000 </r>
       <r>   -11.1557     0.0000     0.0000 </r>
       <r>   -10.7741     0.0000     0.0000 </r>
       <r>   -10.3925     0.0000     0.0000 </r>
       <r>   -10.0109     0.0000     0.0000 </r>
       <r>    -9.6293     0.0000     0.0000 </r>
       <r>    -9.2477     0.0000     0.0000 </r>
       <r>    -8.8661     0.0000     0.0000 </r>
       <r>    -8.4846     0.0000     0.0000 </r>
       <r>    -8.1030     0.0000     0.0000 </r>
       <r>    -7.7214     0.0000     0.0000 </r>
       <r>    -7.3398     0.0000     0.0000 </r>
       <r>    -6.9582     0.0000     0.0000 </r>
       <r>    -6.5766     0.0000     0.0000 </r>
       <r>    -6.1950     0.0000     0.0000 </r>
       <r>    -5.8134     0.0000     0.0000 </r>
       <r>    -5.4318     0.0000     0.0000 </r>
       <r>    -5.0502     0.0000     0.0000 </r>
       <r>    -4.6686     0.0000     0.0000 </r>
       <r>    -4.2870     0.0000     0.0000 </r>
       <r>    -3.9054     0.0000     0.0000 </r>
       <r>    -3.5238     0.0000     0.0000 </r>
       <r>    -3.1422     0.0000     0.0000 </r>
       <r>    -2.7607     0.0000     0.0000 </r>
       <r>    -2.3791     0.0000     0.0000 </r>
       <r>    -1.9975     0.0000     0.0000 </r>
       <r>    -1.6159     0.0000     0.0000 </r>
       <r>    -1.2343     0.0000     0.0000 </r>
       <r>    -0.8527     0.0000     0.0000 </r>
       <r>    -0.4711     0.0000     0.0000 </r>
       <r>    -0.0895     0.0000     0.0000 </r>
       <r>     0.2921     0.0000     0.0000 </r>
       <r>     0.6737     0.0000     0.0000 </r>
       <r>     1.0553     0.0000     0.0000 </r>
       <r>     1.4369     0.0000     0.0000 </r>
       <r>     1.8185     0.0000     0.0000 </r>
       <r>     2.2001     0.0000     0.0000 </r>
       <r>     2.5816     0.0000     0.0000 </r>
       <r>     2.9632     0.0000     0.0000 </r>
       <r>     3.3448     0.0000     0.0000 </r>
       <r>     3.7264     0.0000     0.0000 </r>
       <r>     4.1080     0.0000     0.0000 </r>
       <r>     4.4896     0.0000     0.0000 </r>
       <r>     4.8712     0.0000     0.0000 </r>
       <r>     5.2528     0.0000     0.0000 </r>
       <r>     5.6344     0.0000     0.0000 </r>
       <r>     6.0160     0.0000     0.0000 </r>
       <r>     6.3976     0.0000     0.0000 </r>
       <r>     6.7792     0.0000     0.0000 </r>
       <r>     7.1608     0.0000     0.0000 </r>
       <r>     7.5424     0.0000     0.0000 </r>
       <r>     7.9240     0.0000     0.0000 </r>
       <r>     8.3055     0.0000     0.0000 </r>
       <r>     8.6871     0.0000     0.0000 </r>
       <r>     9.0687     0.0000     0.0000 </r>
       <r>     9.4503     0.0000     0.0000 </r>
       <r>     9.8319     0.0000     0.0000 </r>
       <r>    10.2135     0.0000     0.0000 </r>
       <r>    10.5951     0.0000     0.0000 </r>
       <r>    10.9767     0.0000     0.0000 </r>
       <r>    11.3583     0.0000     0.0000 </r>
       <r>    11.7399     0.0000     0.0000 </r>
       <r>    12.1215     0.0000     0.0000 </r>
       <r>    12.5031     0.0000     0.0000 </r>
       <r>    12.8847     0.0000     0.0000 </r>
       <r>    13.2663     0.0000     0.0000 </r>
       <r>    13.6478     0.0000     0.0000 </r>
       <r>    14.0294     0.0000     0.0000 </r>
       <r>    14.4110     0.0000     0.0000 </r>
       <r>    14.7926     0.0000     0.0000 </r>
       <r>    15.1742     0.0000     0.0000 </r>
       <r>    15.5558     0.0000     0.0000 </r>
       <r>    15.9374     0.0000     0.0000 </r>
       <r>    16.3190     0.0000     0.0000 </r>
       <r>    16.7006     0.0000     0.0000 </r>
       <r>    17.0822     0.0000     0.0000 </r>
       <r>    17.4638     0.0000     0.0000 </r>
       <r>    17.8454     0.0000     0.0000 </r>
       <r>    18.2270     0.0000     0.0000 </r>
       <r>    18.6086     0.0000     0.0000 </r>
       <r>    18.9901     0.0000     0.0000 </r>
       <r>    19.3717     0.0000     0.0000 </r>
       <r>    19.7533     0.0000     0.0000 </r>
       <r>    20.1349     0.0000     0.0000 </r>
       <r>    20.5165     0.0000     0.0000 </r>
       <r>    20.8981     0.0000     0.0000 </r>
       <r>    21.2797     0.0000     0.0000 </r>
       <r>    21.6613     0.0000     0.0000 </r>
       <r>    22.0429     0.0000     0.0000 </r>
       <r>    22.4245     0.0000     0.0000 </r>
       <r>    22.8061     0.0000     0.0000 </r>
       <r>    23.1877     0.0000     0.0000 </r>
       <r>    23.5693     0.0000     0.0000 </r>
       <r>    23.9509     0.0000     0.0000 </r>
       <r>    24.3325     0.0000     0.0000 </r>
       <r>    24.7140     0.0000     0.0000 </r>
       <r>    25.0956     0.0000     0.0000 </r>
       <r>    25.4772     0.0000     0.0000 </r>
       <r>    25.8588     0.0000     0.0000 </r>
       <r>    26.2404     0.0000     0.0000 </r>
       <r>    26.6220     0.0000     0.0000 </r>
       <r>    27.0036     0.0000     0.0000 </r>
       <r>    27.3852     0.0000     0.0000 </r>
       <r>    27.7668     0.0000     0.0000 </r>
       <r>    28.1484     0.0000     0.0000 </r>
       <r>    28.5300     0.0000     0.0000 </r>
       <r>    28.9116     0.0000     0.0000 </r>
       <r>    29.2932     0.0000     0.0000 </r>
       <r>    29.6748     0.0000     0.0000 </r>
       <r>    30.0563     0.0000     0.0000 </r>
       <r>    30.4379     0.0000     0.0000 </r>
       <r>    30.8195     0.0000     0.0000 </r>
       <r>    31.2011     0.0000     0.0000 </r>
       <r>    31.5827     0.0000     0.0000 </r>
       <r>    31.9643     0.0000     0.0000 </r>
       <r>    32.3459     0.0000     0.0000 </r>
       <r>    32.7275     0.0000     0.0000 </r>
       <r>    33.1091     0.0000     0.0000 </r>
       <r>    33.4907     0.0000     0.0000 </r>
       <r>    33.8723     0.0000     0.0000 </r>
       <r>    34.2539     0.0000     0.0000 </r>
       <r>    34.6355     0.0000     0.0000 </r>
       <r>    35.0171     0.0000     0.0000 </r>
       <r>    35.3987     0.0000     0.0000 </r>
       <r>    35.7802     0.0000     0.0000 </r>
       <r>    36.1618     0.0000     0.0000 </r>
       <r>    36.5434     0.0000     0.0000 </r>
       <r>    36.9250     0.0000     0.0000 </r>
       <r>    37.3066     0.0000     0.0000 </r>
       <r>    37.6882     0.0000     0.0000 </r>
       <r>    38.0698     0.0000     0.0000 </r>
       <r>    38.4514     0.0000     0.0000 </r>
       <r>    38.8330     0.0000     0.0000 </r>
       <r>    39.2146     0.0000     0.0000 </r>
       <r>    39.5962     0.0000     0.0000 </r>
       <r>    39.9778     0.0000     0.0000 </r>
       <r>    40.3594     0.0000     0.0000 </r>
       <r>    40.7410     0.0000     0.0000 </r>
       <r>    41.1225     0.0000     0.0000 </r>
       <r>    41.5041     0.0000     0.0000 </r>
       <r>    41.8857     0.0000     0.0000 </r>
       <r>    42.2673     0.0000     0.0000 </r>
       <r>    42.6489     0.0000     0.0000 </r>
       <r>    43.0305     0.0000     0.0000 </r>
       <r>    43.4121     0.0000     0.0000 </r>
       <r>    43.7937     0.0000     0.0000 </r>
       <r>    44.1753     0.0000     0.0000 </r>
       <r>    44.5569     0.0000     0.0000 </r>
       <r>    44.9385     0.0000     0.0000 </r>
       <r>    45.3201     0.0000     0.0000 </r>
       <r>    45.7017     0.0000     0.0000 </r>
       <r>    46.0833     0.0000     0.0000 </r>
       <r>    46.4648     0.0000     0.0000 </r>
       <r>    46.8464     0.0000     0.0000 </r>
       <r>    47.2280     0.0000     0.0000 </r>
       <r>    47.6096     0.0000     0.0000 </r>
       <r>    47.9912     0.0000     0.0000 </r>
       <r>    48.3728     0.0000     0.0000 </r>
       <r>    48.7544     0.0000     0.0000 </r>
       <r>    49.1360     0.0000     0.0000 </r>
       <r>    49.5176     0.0000     0.0000 </r>
       <r>    49.8992     0.0000     0.0000 </r>
       <r>    50.2808     0.0000     0.0000 </r>
       <r>    50.6624     0.0000     0.0000 </r>
       <r>    51.0440     0.0000     0.0000 </r>
       <r>    51.4256     0.0000     0.0000 </r>
       <r>    51.8072     0.0000     0.0000 </r>
       <r>    52.1887     0.0000     0.0000 </r>
       <r>    52.5703     0.0000     0.0000 </r>
       <r>    52.9519     0.0000     0.0000 </r>
       <r>    53.3335     0.0000     0.0000 </r>
       <r>    53.7151     0.0000     0.0000 </r>
       <r>    54.0967     0.0000     0.0000 </r>
       <r>    54.4783     0.0000     0.0000 </r>
       <r>    54.8599     0.0000     0.0000 </r>
       <r>    55.2415     0.0000     0.0000 </r>
       <r>    55.6231     0.0000     0.0000 </r>
       <r>    56.0047     0.0000     0.0000 </r>
       <r>    56.3863     0.0000     0.0000 </r>
       <r>    56.7679     0.0000     0.0000 </r>
       <r>    57.1495     0.0000     0.0000 </r>
       <r>    57.5310     0.0000     0.0000 </r>
       <r>    57.9126     0.0000     0.0000 </r>
       <r>    58.2942     0.0000     0.0000 </r>
       <r>    58.6758     0.0000     0.0000 </r>
       <r>    59.0574     0.0000     0.0000 </r>
       <r>    59.4390     0.0000     0.0000 </r>
       <r>    59.8206     0.0000     0.0000 </r>
       <r>    60.2022     0.0000     0.0000 </r>
       <r>    60.5838     0.0000     0.0000 </r>
       <r>    60.9654     0.0000     0.0000 </r>
       <r>    61.3470     0.0000     0.0000 </r>
       <r>    61.7286     0.0000     0.0000 </r>
       <r>    62.1102     0.0000     0.0000 </r>
       <r>    62.4918     0.0000     0.0000 </r>
       <r>    62.8734     0.0000     0.0000 </r>
       <r>    63.2549     0.0000     0.0000 </r>
       <r>    63.6365     0.0000     0.0000 </r>
       <r>    64.0181     0.0000     0.0000 </r>
       <r>    64.3997     0.0000     0.0000 </r>
       <r>    64.7813     0.0000     0.0000 </r>
       <r>    65.1629     0.0000     0.0000 </r>
       <r>    65.5445     0.0000     0.0000 </r>
       <r>    65.9261     0.0000     0.0000 </r>
       <r>    66.3077     0.0000     0.0000 </r>
       <r>    66.6893     0.0000     0.0000 </r>
       <r>    67.0709     0.0000     0.0000 </r>
       <r>    67.4525     0.0000     0.0000 </r>
       <r>    67.8341     0.0000     0.0000 </r>
       <r>    68.2157     0.0000     0.0000 </r>
       <r>    68.5972     0.0000     0.0000 </r>
       <r>    68.9788     0.0000     0.0000 </r>
       <r>    69.3604     0.0000     0.0000 </r>
       <r>    69.7420     0.0000     0.0000 </r>
       <r>    70.1236     0.0000     0.0000 </r>
       <r>    70.5052     0.0000     0.0000 </r>
       <r>    70.8868     0.0000     0.0000 </r>
       <r>    71.2684     0.0000     0.0000 </r>
       <r>    71.6500     0.0000     0.0000 </r>
       <r>    72.0316     0.0000     0.0000 </r>
       <r>    72.4132     0.0000     0.0000 </r>
       <r>    72.7948     0.0000     0.0000 </r>
       <r>    73.1764     0.0000     0.0000 </r>
       <r>    73.5580     0.0000     0.0000 </r>
       <r>    73.9395     0.0000     0.0000 </r>
       <r>    74.3211     0.0000     0.0000 </r>
       <r>    74.7027     0.0000     0.0000 </r>
       <r>    75.0843     0.0000     0.0000 </r>
       <r>    75.4659     0.0000     0.0000 </r>
       <r>    75.8475     0.0000     0.0000 </r>
       <r>    76.2291     0.0000     0.0000 </r>
       <r>    76.6107     0.0000     0.0000 </r>
       <r>    76.9923     0.0000     0.0000 </r>
       <r>    77.3739     0.0000     0.0000 </r>
       <r>    77.7555     0.0000     0.0000 </r>
       <r>    78.1371     0.0000     0.0000 </r>
       <r>    78.5187     0.0000     0.0000 </r>
      </set>
     </set>
    </array>
   </total>
  </dos>
 </calculation>
 <structure name="finalpos" >
  <crystal>
   <varray name="basis" >
    <v>       4.39635018       0.00000000       0.00000000 </v>
    <v>       2.19817509       3.80735094      -0.00000000 </v>
    <v>       2.19817509       1.26911698       3.58960489 </v>
   </varray>
   <i name="volume">     60.08441465 </i>
   <varray name="rec_basis" >
    <v>       0.22746141      -0.13132490      -0.09286073 </v>
    <v>       0.00000000       0.26264981      -0.09286073 </v>
    <v>      -0.00000000       0.00000000       0.27858219 </v>
   </varray>
  </crystal>
  <varray name="positions" >
   <v>       0.00000000       0.00000000       0.00000000 </v>
  </varray>
  <varray name="velocities" >
   <v>       0.00000000       0.00000000       0.00000000 </v>
  </varray>
 </structure>
</modeling>
