   1   1   0   0
  0.6014270E+02  0.4397771E-09  0.4397771E-09  0.4397771E-09  0.1000000E-15
  1.000000000000000E-004
  CAR 
 Og_FCC                                  
     16.65404447    -33.16892150  301      3.42007990      1.00000000
    -33.169  0.0000E+00  0.0000E+00
    -33.003  0.0000E+00  0.0000E+00
    -32.837  0.0000E+00  0.0000E+00
    -32.671  0.0000E+00  0.0000E+00
    -32.505  0.0000E+00  0.0000E+00
    -32.339  0.0000E+00  0.0000E+00
    -32.172  0.0000E+00  0.0000E+00
    -32.006  0.0000E+00  0.0000E+00
    -31.840 -0.4253E-36 -0.7063E-37
    -31.674 -0.7415E-24 -0.1232E-24
    -31.508 -0.4960E-14 -0.8238E-15
    -31.342 -0.1172E-06 -0.1947E-07
    -31.176 -0.9256E-02 -0.1537E-02
    -31.010 -0.7393E+00 -0.1243E+00
    -30.844  0.2278E+02  0.3659E+01
    -30.678  0.2133E+01  0.4013E+01
    -30.512 -0.7940E-01  0.4000E+01
    -30.346 -0.5714E-05  0.4000E+01
    -30.180 -0.1224E-11  0.4000E+01
    -30.013  0.0000E+00  0.4000E+01
    -29.847  0.0000E+00  0.4000E+01
    -29.681  0.0000E+00  0.4000E+01
    -29.515  0.0000E+00  0.4000E+01
    -29.349  0.0000E+00  0.4000E+01
    -29.183  0.0000E+00  0.4000E+01
    -29.017  0.0000E+00  0.4000E+01
    -28.851  0.0000E+00  0.4000E+01
    -28.685  0.0000E+00  0.4000E+01
    -28.519  0.0000E+00  0.4000E+01
    -28.353  0.0000E+00  0.4000E+01
    -28.187  0.0000E+00  0.4000E+01
    -28.021  0.0000E+00  0.4000E+01
    -27.854  0.0000E+00  0.4000E+01
    -27.688  0.0000E+00  0.4000E+01
    -27.522  0.0000E+00  0.4000E+01
    -27.356  0.0000E+00  0.4000E+01
    -27.190  0.0000E+00  0.4000E+01
    -27.024  0.0000E+00  0.4000E+01
    -26.858  0.0000E+00  0.4000E+01
    -26.692  0.0000E+00  0.4000E+01
    -26.526  0.0000E+00  0.4000E+01
    -26.360  0.0000E+00  0.4000E+01
    -26.194  0.0000E+00  0.4000E+01
    -26.028  0.0000E+00  0.4000E+01
    -25.862  0.0000E+00  0.4000E+01
    -25.695  0.0000E+00  0.4000E+01
    -25.529  0.0000E+00  0.4000E+01
    -25.363  0.0000E+00  0.4000E+01
    -25.197  0.0000E+00  0.4000E+01
    -25.031 -0.4547E-27  0.4000E+01
    -24.865 -0.1568E-16  0.4000E+01
    -24.699 -0.1968E-08  0.4000E+01
    -24.533 -0.8756E-03  0.4000E+01
    -24.367 -0.8780E+00  0.3854E+01
    -24.201  0.2162E+02  0.7445E+01
    -24.035  0.1598E+02  0.1010E+02
    -23.869 -0.5957E+00  0.1000E+02
    -23.703 -0.2901E-03  0.1000E+02
    -23.536 -0.3553E-09  0.1000E+02
    -23.370  0.0000E+00  0.1000E+02
    -23.204  0.0000E+00  0.1000E+02
    -23.038  0.0000E+00  0.1000E+02
    -22.872  0.0000E+00  0.1000E+02
    -22.706  0.0000E+00  0.1000E+02
    -22.540  0.0000E+00  0.1000E+02
    -22.374  0.0000E+00  0.1000E+02
    -22.208  0.0000E+00  0.1000E+02
    -22.042  0.0000E+00  0.1000E+02
    -21.876  0.0000E+00  0.1000E+02
    -21.710  0.0000E+00  0.1000E+02
    -21.544 -0.3319E-37  0.1000E+02
    -21.377 -0.3963E-25  0.1000E+02
    -21.211 -0.1971E-15  0.1000E+02
    -21.045 -0.4036E-08  0.1000E+02
    -20.879 -0.3819E-03  0.1000E+02
    -20.713 -0.1723E+00  0.9971E+01
    -20.547  0.4693E+01  0.1075E+02
    -20.381  0.7844E+01  0.1205E+02
    -20.215 -0.3211E+00  0.1200E+02
    -20.049 -0.8806E-03  0.1200E+02
    -19.883 -0.5221E-08  0.1200E+02
    -19.717  0.0000E+00  0.1200E+02
    -19.551  0.0000E+00  0.1200E+02
    -19.385  0.0000E+00  0.1200E+02
    -19.218  0.0000E+00  0.1200E+02
    -19.052  0.0000E+00  0.1200E+02
    -18.886  0.0000E+00  0.1200E+02
    -18.720  0.0000E+00  0.1200E+02
    -18.554  0.0000E+00  0.1200E+02
    -18.388  0.0000E+00  0.1200E+02
    -18.222  0.0000E+00  0.1200E+02
    -18.056  0.0000E+00  0.1200E+02
    -17.890  0.0000E+00  0.1200E+02
    -17.724  0.0000E+00  0.1200E+02
    -17.558  0.0000E+00  0.1200E+02
    -17.392  0.0000E+00  0.1200E+02
    -17.226  0.0000E+00  0.1200E+02
    -17.059  0.0000E+00  0.1200E+02
    -16.893  0.0000E+00  0.1200E+02
    -16.727  0.0000E+00  0.1200E+02
    -16.561  0.0000E+00  0.1200E+02
    -16.395  0.0000E+00  0.1200E+02
    -16.229  0.0000E+00  0.1200E+02
    -16.063  0.0000E+00  0.1200E+02
    -15.897  0.0000E+00  0.1200E+02
    -15.731  0.0000E+00  0.1200E+02
    -15.565  0.0000E+00  0.1200E+02
    -15.399  0.0000E+00  0.1200E+02
    -15.233  0.0000E+00  0.1200E+02
    -15.067  0.0000E+00  0.1200E+02
    -14.901  0.0000E+00  0.1200E+02
    -14.734  0.0000E+00  0.1200E+02
    -14.568  0.0000E+00  0.1200E+02
    -14.402  0.0000E+00  0.1200E+02
    -14.236  0.0000E+00  0.1200E+02
    -14.070  0.0000E+00  0.1200E+02
    -13.904  0.0000E+00  0.1200E+02
    -13.738  0.0000E+00  0.1200E+02
    -13.572  0.0000E+00  0.1200E+02
    -13.406  0.0000E+00  0.1200E+02
    -13.240  0.0000E+00  0.1200E+02
    -13.074  0.0000E+00  0.1200E+02
    -12.908  0.0000E+00  0.1200E+02
    -12.742  0.0000E+00  0.1200E+02
    -12.575  0.0000E+00  0.1200E+02
    -12.409  0.0000E+00  0.1200E+02
    -12.243  0.0000E+00  0.1200E+02
    -12.077  0.0000E+00  0.1200E+02
    -11.911  0.0000E+00  0.1200E+02
    -11.745  0.0000E+00  0.1200E+02
    -11.579  0.0000E+00  0.1200E+02
    -11.413  0.0000E+00  0.1200E+02
    -11.247  0.0000E+00  0.1200E+02
    -11.081  0.0000E+00  0.1200E+02
    -10.915  0.0000E+00  0.1200E+02
    -10.749  0.0000E+00  0.1200E+02
    -10.583  0.0000E+00  0.1200E+02
    -10.416  0.0000E+00  0.1200E+02
    -10.250  0.0000E+00  0.1200E+02
    -10.084  0.0000E+00  0.1200E+02
     -9.918  0.0000E+00  0.1200E+02
     -9.752  0.0000E+00  0.1200E+02
     -9.586  0.0000E+00  0.1200E+02
     -9.420  0.0000E+00  0.1200E+02
     -9.254  0.0000E+00  0.1200E+02
     -9.088  0.0000E+00  0.1200E+02
     -8.922  0.0000E+00  0.1200E+02
     -8.756 -0.1058E-37  0.1200E+02
     -8.590 -0.2243E-25  0.1200E+02
     -8.424 -0.1893E-15  0.1200E+02
     -8.257 -0.6033E-08  0.1200E+02
     -8.091 -0.7355E-03  0.1200E+02
     -7.925 -0.2070E+00  0.1197E+02
     -7.759  0.5214E+01  0.1283E+02
     -7.593  0.5897E+01  0.1381E+02
     -7.427  0.1103E+01  0.1399E+02
     -7.261  0.3849E-01  0.1400E+02
     -7.095 -0.2870E-02  0.1400E+02
     -6.929 -0.9364E-06  0.1400E+02
     -6.763 -0.1460E-11  0.1400E+02
     -6.597  0.0000E+00  0.1400E+02
     -6.431  0.0000E+00  0.1400E+02
     -6.265  0.0000E+00  0.1400E+02
     -6.098  0.0000E+00  0.1400E+02
     -5.932  0.0000E+00  0.1400E+02
     -5.766  0.0000E+00  0.1400E+02
     -5.600  0.0000E+00  0.1400E+02
     -5.434  0.0000E+00  0.1400E+02
     -5.268  0.0000E+00  0.1400E+02
     -5.102  0.0000E+00  0.1400E+02
     -4.936  0.0000E+00  0.1400E+02
     -4.770  0.0000E+00  0.1400E+02
     -4.604  0.0000E+00  0.1400E+02
     -4.438  0.0000E+00  0.1400E+02
     -4.272  0.0000E+00  0.1400E+02
     -4.106  0.0000E+00  0.1400E+02
     -3.939  0.0000E+00  0.1400E+02
     -3.773  0.0000E+00  0.1400E+02
     -3.607  0.0000E+00  0.1400E+02
     -3.441  0.0000E+00  0.1400E+02
     -3.275  0.0000E+00  0.1400E+02
     -3.109  0.0000E+00  0.1400E+02
     -2.943  0.0000E+00  0.1400E+02
     -2.777  0.0000E+00  0.1400E+02
     -2.611  0.0000E+00  0.1400E+02
     -2.445  0.0000E+00  0.1400E+02
     -2.279  0.0000E+00  0.1400E+02
     -2.113  0.0000E+00  0.1400E+02
     -1.947  0.0000E+00  0.1400E+02
     -1.780  0.0000E+00  0.1400E+02
     -1.614  0.0000E+00  0.1400E+02
     -1.448  0.0000E+00  0.1400E+02
     -1.282  0.0000E+00  0.1400E+02
     -1.116  0.0000E+00  0.1400E+02
     -0.950  0.0000E+00  0.1400E+02
     -0.784  0.0000E+00  0.1400E+02
     -0.618  0.0000E+00  0.1400E+02
     -0.452 -0.5077E-28  0.1400E+02
     -0.286 -0.1121E-17  0.1400E+02
     -0.120 -0.9079E-10  0.1400E+02
      0.046 -0.2795E-04  0.1400E+02
      0.212 -0.3160E-01  0.1399E+02
      0.379  0.6695E+00  0.1411E+02
      0.545  0.6243E+01  0.1514E+02
      0.711  0.2360E+01  0.1553E+02
      0.877  0.7394E+00  0.1566E+02
      1.043  0.7433E+00  0.1578E+02
      1.209  0.2634E+00  0.1582E+02
      1.375  0.6337E+00  0.1593E+02
      1.541  0.9228E+00  0.1608E+02
      1.707  0.2323E+01  0.1647E+02
      1.873  0.1024E+01  0.1664E+02
      2.039  0.1498E+01  0.1689E+02
      2.205  0.1510E+01  0.1714E+02
      2.371  0.1176E+01  0.1733E+02
      2.538  0.6307E+00  0.1744E+02
      2.704  0.1382E+01  0.1767E+02
      2.870  0.6801E+00  0.1778E+02
      3.036  0.6665E+00  0.1789E+02
      3.202  0.4169E+00  0.1796E+02
      3.368  0.1862E+00  0.1799E+02
      3.534  0.6657E-01  0.1800E+02
      3.700 -0.2572E-02  0.1800E+02
      3.866 -0.6661E-05  0.1800E+02
      4.032 -0.1784E-08  0.1800E+02
      4.198 -0.9018E-04  0.1800E+02
      4.364 -0.2513E-02  0.1800E+02
      4.530  0.1292E+00  0.1802E+02
      4.697  0.2076E-01  0.1803E+02
      4.863  0.8738E-01  0.1804E+02
      5.029 -0.6407E-02  0.1804E+02
      5.195  0.7641E-01  0.1805E+02
      5.361  0.2109E+00  0.1809E+02
      5.527  0.1671E+00  0.1812E+02
      5.693  0.4147E+00  0.1819E+02
      5.859  0.1257E+00  0.1821E+02
      6.025  0.5610E+00  0.1830E+02
      6.191  0.1113E+01  0.1848E+02
      6.357  0.1680E+01  0.1876E+02
      6.523  0.6961E+00  0.1888E+02
      6.689  0.8729E+00  0.1902E+02
      6.856  0.2268E+01  0.1940E+02
      7.022  0.1668E+01  0.1968E+02
      7.188  0.1319E+01  0.1990E+02
      7.354  0.6522E+00  0.2000E+02
      7.520  0.1887E+00  0.2004E+02
      7.686  0.4834E+00  0.2012E+02
      7.852  0.4909E+00  0.2020E+02
      8.018  0.5567E-01  0.2021E+02
      8.184  0.1975E+01  0.2053E+02
      8.350  0.3844E+01  0.2117E+02
      8.516  0.3309E+00  0.2123E+02
      8.682  0.1006E+01  0.2140E+02
      8.848  0.1129E+01  0.2158E+02
      9.015  0.9643E+00  0.2174E+02
      9.181  0.1974E+01  0.2207E+02
      9.347  0.2429E+01  0.2247E+02
      9.513  0.1571E+01  0.2273E+02
      9.679  0.4339E+00  0.2281E+02
      9.845  0.1060E+01  0.2298E+02
     10.011  0.2025E+01  0.2332E+02
     10.177  0.2923E+01  0.2380E+02
     10.343  0.7501E+00  0.2393E+02
     10.509  0.8321E+00  0.2407E+02
     10.675  0.1178E+01  0.2426E+02
     10.841  0.1476E+01  0.2451E+02
     11.007  0.2116E+01  0.2486E+02
     11.174  0.3090E+01  0.2537E+02
     11.340  0.9139E+00  0.2552E+02
     11.506  0.1546E+01  0.2578E+02
     11.672  0.1227E+01  0.2599E+02
     11.838  0.1449E+01  0.2623E+02
     12.004  0.8060E+00  0.2636E+02
     12.170  0.1235E+01  0.2656E+02
     12.336  0.2224E+01  0.2693E+02
     12.502  0.1124E+01  0.2712E+02
     12.668  0.8885E+00  0.2727E+02
     12.834  0.3779E+00  0.2733E+02
     13.000  0.1919E+01  0.2765E+02
     13.166  0.8289E+00  0.2779E+02
     13.333  0.6269E-01  0.2780E+02
     13.499  0.3490E-01  0.2780E+02
     13.665  0.4771E+00  0.2788E+02
     13.831  0.9734E-01  0.2790E+02
     13.997  0.3595E+00  0.2796E+02
     14.163  0.5906E-01  0.2797E+02
     14.329  0.1680E+00  0.2800E+02
     14.495  0.2132E-01  0.2800E+02
     14.661 -0.9187E-03  0.2800E+02
     14.827 -0.7019E-05  0.2800E+02
     14.993 -0.9172E-10  0.2800E+02
     15.159 -0.3668E-17  0.2800E+02
     15.325  0.0000E+00  0.2800E+02
     15.492  0.0000E+00  0.2800E+02
     15.658  0.0000E+00  0.2800E+02
     15.824  0.0000E+00  0.2800E+02
     15.990  0.0000E+00  0.2800E+02
     16.156  0.0000E+00  0.2800E+02
     16.322  0.0000E+00  0.2800E+02
     16.488  0.0000E+00  0.2800E+02
     16.654  0.0000E+00  0.2800E+02
