    1    1    1    1
  0.6014270E+02  0.4397771E-09  0.4397771E-09  0.4397771E-09  0.1000000E-15
  1.000000000000000E-004
  CAR 
 Og_FCC                                  
     18    365     28
 
  0.0000000E+00  0.0000000E+00  0.0000000E+00  0.1371742E-02
    1      -30.904241   1.000000
    2      -30.904241   1.000000
    3      -30.904240   1.000000
    4      -30.904240   1.000000
    5      -24.215660   1.000000
    6      -24.215660   1.000000
    7      -24.212330   1.000000
    8      -24.212330   1.000000
    9      -24.212329   1.000000
   10      -24.212329   1.000000
   11      -20.626519   1.000000
   12      -20.626519   1.000000
   13       -7.414929   1.000000
   14       -7.414927   1.000000
   15        3.217729   1.007404
   16        3.217743   1.007408
   17        3.413170   0.558320
   18        3.413171   0.558311
   19        3.413172   0.558306
   20        3.413172   0.558302
   21       10.319567   0.000000
   22       10.319568   0.000000
   23       10.319569   0.000000
   24       10.319570   0.000000
   25       10.621339   0.000000
   26       10.621341   0.000000
   27       10.725146   0.000000
   28       10.725148   0.000000
 
  0.1111111E+00 -0.1977491E-16 -0.1387779E-16  0.2743484E-02
    1      -30.904198   1.000000
    2      -30.904198   1.000000
    3      -30.903979   1.000000
    4      -30.903979   1.000000
    5      -24.215001   1.000000
    6      -24.215001   1.000000
    7      -24.212428   1.000000
    8      -24.212428   1.000000
    9      -24.211560   1.000000
   10      -24.211560   1.000000
   11      -20.615568   1.000000
   12      -20.615568   1.000000
   13       -7.452808   1.000000
   14       -7.452806   1.000000
   15        2.219947   1.000000
   16        2.219952   1.000000
   17        3.343224   0.981561
   18        3.343225   0.981558
   19        4.459793  -0.000000
   20        4.459800  -0.000000
   21        9.516312   0.000000
   22        9.516312   0.000000
   23       10.437667   0.000000
   24       10.437667   0.000000
   25       10.717437   0.000000
   26       10.717443   0.000000
   27       11.761931   0.000000
   28       11.921601   0.000000
 
  0.2222222E+00 -0.2567204E-16  0.1387779E-16  0.2743484E-02
    1      -30.904034   1.000000
    2      -30.904034   1.000000
    3      -30.903211   1.000000
    4      -30.903211   1.000000
    5      -24.214009   1.000000
    6      -24.214009   1.000000
    7      -24.211963   1.000000
    8      -24.211963   1.000000
    9      -24.209591   1.000000
   10      -24.209591   1.000000
   11      -20.587525   1.000000
   12      -20.587525   1.000000
   13       -7.548779   1.000000
   14       -7.548778   1.000000
   15        1.325035   1.000000
   16        1.325038   1.000000
   17        3.177117   1.001577
   18        3.177118   1.001577
   19        5.343202  -0.000000
   20        5.343209  -0.000000
   21        9.251557   0.000000
   22        9.251561   0.000000
   23       10.415421   0.000000
   24       10.415466   0.000000
   25       10.769598   0.000000
   26       10.771564   0.000000
   27       11.242234   0.000000
   28       11.928545   0.000000
 
  0.3333333E+00 -0.5238585E-16  0.0000000E+00  0.2743484E-02
    1      -30.903835   1.000000
    2      -30.903835   1.000000
    3      -30.902361   1.000000
    4      -30.902361   1.000000
    5      -24.214217   1.000000
    6      -24.214216   1.000000
    7      -24.210105   1.000000
    8      -24.210104   1.000000
    9      -24.207349   1.000000
   10      -24.207349   1.000000
   11      -20.555260   1.000000
   12      -20.555260   1.000000
   13       -7.658289   1.000000
   14       -7.658287   1.000000
   15        0.696730   1.000000
   16        0.696732   1.000000
   17        3.004175   1.000000
   18        3.004176   1.000000
   19        5.682016  -0.000000
   20        5.682020  -0.000000
   21        9.762075   0.000000
   22        9.762096   0.000000
   23       10.058088   0.000000
   24       10.058089   0.000000
   25       10.467629   0.000000
   26       10.467632   0.000000
   27       10.751923   0.000000
   28       10.751940   0.000000
 
  0.4444444E+00 -0.5134408E-16  0.2775558E-16  0.2743484E-02
    1      -30.903711   1.000000
    2      -30.903711   1.000000
    3      -30.901788   1.000000
    4      -30.901788   1.000000
    5      -24.214547   1.000000
    6      -24.214547   1.000000
    7      -24.208708   1.000000
    8      -24.208707   1.000000
    9      -24.205883   1.000000
   10      -24.205883   1.000000
   11      -20.533973   1.000000
   12      -20.533973   1.000000
   13       -7.729965   1.000000
   14       -7.729963   1.000000
   15        0.374439   1.000000
   16        0.374441   1.000000
   17        2.898847   1.000000
   18        2.898848   1.000000
   19        5.707900  -0.000000
   20        5.707902  -0.000000
   21        9.808084   0.000000
   22        9.808085   0.000000
   23        9.958885   0.000000
   24        9.958927   0.000000
   25       10.196534   0.000000
   26       10.196536   0.000000
   27       11.265059   0.000000
   28       11.265061   0.000000
 
 -0.1925930E-33  0.1111111E+00  0.1387779E-16  0.2743484E-02
    1      -30.904198   1.000000
    2      -30.904198   1.000000
    3      -30.903979   1.000000
    4      -30.903979   1.000000
    5      -24.215001   1.000000
    6      -24.215001   1.000000
    7      -24.212429   1.000000
    8      -24.212428   1.000000
    9      -24.211560   1.000000
   10      -24.211560   1.000000
   11      -20.615568   1.000000
   12      -20.615568   1.000000
   13       -7.452808   1.000000
   14       -7.452806   1.000000
   15        2.219947   1.000000
   16        2.219953   1.000000
   17        3.343224   0.981561
   18        3.343225   0.981558
   19        4.459793  -0.000000
   20        4.459800  -0.000000
   21        9.516312   0.000000
   22        9.516312   0.000000
   23       10.437666   0.000000
   24       10.437668   0.000000
   25       10.717439   0.000000
   26       10.717454   0.000000
   27       11.773884   0.000000
   28       12.080137   0.000000
 
  0.1111111E+00  0.1111111E+00  0.0000000E+00  0.2743484E-02
    1      -30.904127   1.000000
    2      -30.904127   1.000000
    3      -30.903964   1.000000
    4      -30.903963   1.000000
    5      -24.214883   1.000000
    6      -24.214882   1.000000
    7      -24.211983   1.000000
    8      -24.211983   1.000000
    9      -24.211681   1.000000
   10      -24.211680   1.000000
   11      -20.611948   1.000000
   12      -20.611948   1.000000
   13       -7.465014   1.000000
   14       -7.465012   1.000000
   15        2.116544   1.000000
   16        2.116550   1.000000
   17        3.176999   1.001569
   18        3.177000   1.001569
   19        4.742818  -0.000000
   20        4.742825  -0.000000
   21        9.233701   0.000000
   22        9.233702   0.000000
   23       10.453464   0.000000
   24       10.453467   0.000000
   25       11.012190   0.000000
   26       11.012406   0.000000
   27       11.111022   0.000000
   28       11.111191   0.000000
 
  0.2222222E+00  0.1111111E+00  0.1387779E-16  0.2743484E-02
    1      -30.903943   1.000000
    2      -30.903943   1.000000
    3      -30.903375   1.000000
    4      -30.903374   1.000000
    5      -24.213975   1.000000
    6      -24.213975   1.000000
    7      -24.211926   1.000000
    8      -24.211926   1.000000
    9      -24.209901   1.000000
   10      -24.209900   1.000000
   11      -20.589569   1.000000
   12      -20.589569   1.000000
   13       -7.540368   1.000000
   14       -7.540366   1.000000
   15        1.453712   1.000000
   16        1.453716   1.000000
   17        2.969668   1.000000
   18        2.969669   1.000000
   19        5.549483  -0.000000
   20        5.549491  -0.000000
   21        8.849117   0.000000
   22        8.849118   0.000000
   23        9.965794   0.000000
   24        9.965808   0.000000
   25       10.864174   0.000000
   26       10.864175   0.000000
   27       11.515867   0.000000
   28       11.516294   0.000000
 
  0.3333333E+00  0.1111111E+00  0.0000000E+00  0.2743484E-02
    1      -30.903717   1.000000
    2      -30.903717   1.000000
    3      -30.902565   1.000000
    4      -30.902564   1.000000
    5      -24.213621   1.000000
    6      -24.213621   1.000000
    7      -24.210740   1.000000
    8      -24.210740   1.000000
    9      -24.207699   1.000000
   10      -24.207698   1.000000
   11      -20.558690   1.000000
   12      -20.558690   1.000000
   13       -7.643610   1.000000
   14       -7.643608   1.000000
   15        0.837848   1.000000
   16        0.837851   1.000000
   17        2.744401   1.000000
   18        2.744402   1.000000
   19        6.070361  -0.000000
   20        6.070368  -0.000000
   21        9.098405   0.000000
   22        9.098418   0.000000
   23        9.388861   0.000000
   24        9.388871   0.000000
   25       10.748830   0.000000
   26       10.748831   0.000000
   27       12.057966   0.000000
   28       12.143698   0.000000
 
  0.4444444E+00  0.1111111E+00  0.0000000E+00  0.2743484E-02
    1      -30.903541   1.000000
    2      -30.903541   1.000000
    3      -30.901918   1.000000
    4      -30.901917   1.000000
    5      -24.213851   1.000000
    6      -24.213851   1.000000
    7      -24.208993   1.000000
    8      -24.208993   1.000000
    9      -24.206230   1.000000
   10      -24.206230   1.000000
   11      -20.533698   1.000000
   12      -20.533698   1.000000
   13       -7.726322   1.000000
   14       -7.726320   1.000000
   15        0.454303   1.000000
   16        0.454305   1.000000
   17        2.570701   1.000000
   18        2.570702   1.000000
   19        6.191588   0.000000
   20        6.191591   0.000000
   21        8.855305   0.000000
   22        8.855328   0.000000
   23       10.088355   0.000000
   24       10.088360   0.000000
   25       10.609400   0.000000
   26       10.609401   0.000000
   27       11.775224   0.000000
   28       11.775322   0.000000
 
 -0.4444444E+00  0.1111111E+00  0.1387779E-16  0.2743484E-02
    1      -30.903494   1.000000
    2      -30.903494   1.000000
    3      -30.901740   1.000000
    4      -30.901739   1.000000
    5      -24.213916   1.000000
    6      -24.213916   1.000000
    7      -24.208356   1.000000
    8      -24.208356   1.000000
    9      -24.205961   1.000000
   10      -24.205961   1.000000
   11      -20.526564   1.000000
   12      -20.526564   1.000000
   13       -7.749808   1.000000
   14       -7.749806   1.000000
   15        0.354764   1.000000
   16        0.354766   1.000000
   17        2.520177   1.000000
   18        2.520178   1.000000
   19        6.213428   0.000000
   20        6.213430   0.000000
   21        8.784553   0.000000
   22        8.784578   0.000000
   23       10.136378   0.000000
   24       10.136378   0.000000
   25       10.906953   0.000000
   26       10.906966   0.000000
   27       11.916474   0.000000
   28       11.916529   0.000000
 
 -0.3333333E+00  0.1111111E+00  0.1387779E-16  0.2743484E-02
    1      -30.903609   1.000000
    2      -30.903609   1.000000
    3      -30.902110   1.000000
    4      -30.902110   1.000000
    5      -24.213678   1.000000
    6      -24.213678   1.000000
    7      -24.209500   1.000000
    8      -24.209500   1.000000
    9      -24.206747   1.000000
   10      -24.206747   1.000000
   11      -20.540813   1.000000
   12      -20.540813   1.000000
   13       -7.703224   1.000000
   14       -7.703222   1.000000
   15        0.548849   1.000000
   16        0.548851   1.000000
   17        2.616549   1.000000
   18        2.616549   1.000000
   19        6.210340   0.000000
   20        6.210343   0.000000
   21        9.005006   0.000000
   22        9.005029   0.000000
   23       10.011512   0.000000
   24       10.011520   0.000000
   25       10.373080   0.000000
   26       10.373082   0.000000
   27       12.012831   0.000000
   28       12.096732   0.000000
 
 -0.2222222E+00  0.1111111E+00  0.1387779E-16  0.2743484E-02
    1      -30.903814   1.000000
    2      -30.903814   1.000000
    3      -30.902837   1.000000
    4      -30.902836   1.000000
    5      -24.213334   1.000000
    6      -24.213334   1.000000
    7      -24.211584   1.000000
    8      -24.211584   1.000000
    9      -24.208444   1.000000
   10      -24.208444   1.000000
   11      -20.569440   1.000000
   12      -20.569439   1.000000
   13       -7.608333   1.000000
   14       -7.608331   1.000000
   15        1.011642   1.000000
   16        1.011645   1.000000
   17        2.838053   1.000000
   18        2.838054   1.000000
   19        5.957265  -0.000000
   20        5.957272  -0.000000
   21        9.079924   0.000000
   22        9.079928   0.000000
   23        9.740686   0.000000
   24        9.740705   0.000000
   25       10.607748   0.000000
   26       10.607751   0.000000
   27       11.532819   0.000000
   28       11.545758   0.000000
 
 -0.1111111E+00  0.1111111E+00  0.2419103E-16  0.2743484E-02
    1      -30.904063   1.000000
    2      -30.904063   1.000000
    3      -30.903581   1.000000
    4      -30.903580   1.000000
    5      -24.214080   1.000000
    6      -24.214080   1.000000
    7      -24.212437   1.000000
    8      -24.212436   1.000000
    9      -24.210426   1.000000
   10      -24.210426   1.000000
   11      -20.598928   1.000000
   12      -20.598928   1.000000
   13       -7.509511   1.000000
   14       -7.509509   1.000000
   15        1.656901   1.000000
   16        1.656906   1.000000
   17        3.124970   1.000122
   18        3.124970   1.000122
   19        5.207919  -0.000000
   20        5.207926  -0.000000
   21        9.111374   0.000000
   22        9.111375   0.000000
   23       10.324207   0.000000
   24       10.324217   0.000000
   25       10.816485   0.000000
   26       10.816918   0.000000
   27       11.366679   0.000000
   28       11.387026   0.000000
 
  0.3851860E-33  0.2222222E+00 -0.1387779E-16  0.2743484E-02
    1      -30.904034   1.000000
    2      -30.904034   1.000000
    3      -30.903211   1.000000
    4      -30.903211   1.000000
    5      -24.214010   1.000000
    6      -24.214009   1.000000
    7      -24.211963   1.000000
    8      -24.211963   1.000000
    9      -24.209591   1.000000
   10      -24.209590   1.000000
   11      -20.587525   1.000000
   12      -20.587525   1.000000
   13       -7.548779   1.000000
   14       -7.548778   1.000000
   15        1.325035   1.000000
   16        1.325038   1.000000
   17        3.177117   1.001577
   18        3.177118   1.001577
   19        5.343202  -0.000000
   20        5.343209  -0.000000
   21        9.251557   0.000000
   22        9.251561   0.000000
   23       10.415421   0.000000
   24       10.415425   0.000000
   25       10.769598   0.000000
   26       10.769741   0.000000
   27       11.242164   0.000000
   28       11.280518   0.000000
 
  0.1111111E+00  0.2222222E+00  0.0000000E+00  0.2743484E-02
    1      -30.903943   1.000000
    2      -30.903943   1.000000
    3      -30.903374   1.000000
    4      -30.903374   1.000000
    5      -24.213975   1.000000
    6      -24.213975   1.000000
    7      -24.211926   1.000000
    8      -24.211926   1.000000
    9      -24.209900   1.000000
   10      -24.209900   1.000000
   11      -20.589569   1.000000
   12      -20.589569   1.000000
   13       -7.540368   1.000000
   14       -7.540366   1.000000
   15        1.453712   1.000000
   16        1.453716   1.000000
   17        2.969668   1.000000
   18        2.969669   1.000000
   19        5.549483  -0.000000
   20        5.549491  -0.000000
   21        8.849117   0.000000
   22        8.849118   0.000000
   23        9.965794   0.000000
   24        9.965808   0.000000
   25       10.864173   0.000000
   26       10.864177   0.000000
   27       11.515857   0.000000
   28       11.516022   0.000000
 
  0.2222222E+00  0.2222222E+00 -0.2775558E-16  0.2743484E-02
    1      -30.903698   1.000000
    2      -30.903698   1.000000
    3      -30.903145   1.000000
    4      -30.903145   1.000000
    5      -24.213976   1.000000
    6      -24.213976   1.000000
    7      -24.211093   1.000000
    8      -24.211093   1.000000
    9      -24.208901   1.000000
   10      -24.208901   1.000000
   11      -20.574657   1.000000
   12      -20.574656   1.000000
   13       -7.588045   1.000000
   14       -7.588043   1.000000
   15        1.234846   1.000000
   16        1.234848   1.000000
   17        2.663459   1.000000
   18        2.663460   1.000000
   19        6.067060  -0.000000
   20        6.067072  -0.000000
   21        8.268185   0.000000
   22        8.268186   0.000000
   23        9.419982   0.000000
   24        9.419997   0.000000
   25       11.101707   0.000000
   26       11.101708   0.000000
   27       12.018337   0.000000
   28       12.018338   0.000000
 
  0.3333333E+00  0.2222222E+00  0.2775558E-16  0.2743484E-02
    1      -30.903446   1.000000
    2      -30.903446   1.000000
    3      -30.902558   1.000000
    4      -30.902558   1.000000
    5      -24.213453   1.000000
    6      -24.213452   1.000000
    7      -24.210616   1.000000
    8      -24.210616   1.000000
    9      -24.206858   1.000000
   10      -24.206858   1.000000
   11      -20.549544   1.000000
   12      -20.549544   1.000000
   13       -7.668780   1.000000
   14       -7.668778   1.000000
   15        0.845763   1.000000
   16        0.845765   1.000000
   17        2.377347   1.000000
   18        2.377348   1.000000
   19        6.479810   0.000000
   20        6.479827   0.000000
   21        8.138516   0.000000
   22        8.138518   0.000000
   23        9.052412   0.000000
   24        9.052423   0.000000
   25       11.393543   0.000000
   26       11.393543   0.000000
   27       12.542891   0.000000
   28       12.542905   0.000000
 
  0.4444444E+00  0.2222222E+00 -0.2775558E-16  0.2743484E-02
    1      -30.903196   1.000000
    2      -30.903196   1.000000
    3      -30.902012   1.000000
    4      -30.902011   1.000000
    5      -24.212925   1.000000
    6      -24.212925   1.000000
    7      -24.209534   1.000000
    8      -24.209534   1.000000
    9      -24.205632   1.000000
   10      -24.205631   1.000000
   11      -20.525922   1.000000
   12      -20.525922   1.000000
   13       -7.743728   1.000000
   14       -7.743726   1.000000
   15        0.538562   1.000000
   16        0.538563   1.000000
   17        2.083050   1.000000
   18        2.083050   1.000000
   19        6.699215   0.000000
   20        6.699230   0.000000
   21        8.262340   0.000000
   22        8.262353   0.000000
   23        9.319336   0.000000
   24        9.319339   0.000000
   25       11.221331   0.000000
   26       11.221332   0.000000
   27       12.843698   0.000000
   28       12.844019   0.000000
 
 -0.4444444E+00  0.2222222E+00 -0.1387779E-16  0.2743484E-02
    1      -30.903083   1.000000
    2      -30.903083   1.000000
    3      -30.901777   1.000000
    4      -30.901777   1.000000
    5      -24.212660   1.000000
    6      -24.212660   1.000000
    7      -24.208166   1.000000
    8      -24.208166   1.000000
    9      -24.205972   1.000000
   10      -24.205972   1.000000
   11      -20.515002   1.000000
   12      -20.515002   1.000000
   13       -7.778050   1.000000
   14       -7.778048   1.000000
   15        0.404944   1.000000
   16        0.404945   1.000000
   17        1.924191   1.000000
   18        1.924192   1.000000
   19        6.886823   0.000000
   20        6.886833   0.000000
   21        8.173349   0.000000
   22        8.173370   0.000000
   23       10.276730   0.000000
   24       10.276735   0.000000
   25       11.054827   0.000000
   26       11.054829   0.000000
   27       12.240377   0.000000
   28       12.240384   0.000000
 
 -0.3333333E+00  0.2222222E+00  0.6938894E-17  0.2743484E-02
    1      -30.903148   1.000000
    2      -30.903148   1.000000
    3      -30.901918   1.000000
    4      -30.901917   1.000000
    5      -24.212426   1.000000
    6      -24.212426   1.000000
    7      -24.208422   1.000000
    8      -24.208422   1.000000
    9      -24.206787   1.000000
   10      -24.206787   1.000000
   11      -20.521996   1.000000
   12      -20.521996   1.000000
   13       -7.756790   1.000000
   14       -7.756789   1.000000
   15        0.461873   1.000000
   16        0.461874   1.000000
   17        2.005325   1.000000
   18        2.005326   1.000000
   19        7.073608   0.000000
   20        7.073611   0.000000
   21        8.192838   0.000000
   22        8.192863   0.000000
   23       10.061698   0.000000
   24       10.061705   0.000000
   25       11.025876   0.000000
   26       11.025882   0.000000
   27       12.453680   0.000000
   28       12.537235   0.000000
 
 -0.2222222E+00  0.2222222E+00 -0.2503167E-17  0.2743484E-02
    1      -30.903450   1.000000
    2      -30.903450   1.000000
    3      -30.902344   1.000000
    4      -30.902343   1.000000
    5      -24.212344   1.000000
    6      -24.212343   1.000000
    7      -24.210645   1.000000
    8      -24.210645   1.000000
    9      -24.207242   1.000000
   10      -24.207242   1.000000
   11      -20.543589   1.000000
   12      -20.543589   1.000000
   13       -7.690215   1.000000
   14       -7.690213   1.000000
   15        0.686502   1.000000
   16        0.686504   1.000000
   17        2.339125   1.000000
   18        2.339126   1.000000
   19        6.804959   0.000000
   20        6.804964   0.000000
   21        8.563208   0.000000
   22        8.563228   0.000000
   23        9.455259   0.000000
   24        9.455269   0.000000
   25       10.821726   0.000000
   26       10.821732   0.000000
   27       11.603722   0.000000
   28       11.603724   0.000000
 
 -0.1111111E+00  0.2222222E+00  0.2775558E-16  0.2743484E-02
    1      -30.903814   1.000000
    2      -30.903814   1.000000
    3      -30.902836   1.000000
    4      -30.902836   1.000000
    5      -24.213334   1.000000
    6      -24.213334   1.000000
    7      -24.211584   1.000000
    8      -24.211583   1.000000
    9      -24.208444   1.000000
   10      -24.208444   1.000000
   11      -20.569440   1.000000
   12      -20.569439   1.000000
   13       -7.608333   1.000000
   14       -7.608331   1.000000
   15        1.011642   1.000000
   16        1.011645   1.000000
   17        2.838053   1.000000
   18        2.838054   1.000000
   19        5.957265  -0.000000
   20        5.957272  -0.000000
   21        9.079924   0.000000
   22        9.079928   0.000000
   23        9.740686   0.000000
   24        9.740704   0.000000
   25       10.607747   0.000000
   26       10.607748   0.000000
   27       11.532761   0.000000
   28       11.550439   0.000000
 
 -0.3851860E-33  0.3333333E+00  0.2775558E-16  0.2743484E-02
    1      -30.903835   1.000000
    2      -30.903835   1.000000
    3      -30.902361   1.000000
    4      -30.902360   1.000000
    5      -24.214217   1.000000
    6      -24.214217   1.000000
    7      -24.210105   1.000000
    8      -24.210104   1.000000
    9      -24.207349   1.000000
   10      -24.207349   1.000000
   11      -20.555260   1.000000
   12      -20.555260   1.000000
   13       -7.658289   1.000000
   14       -7.658287   1.000000
   15        0.696729   1.000000
   16        0.696732   1.000000
   17        3.004175   1.000000
   18        3.004176   1.000000
   19        5.682016  -0.000000
   20        5.682020  -0.000000
   21        9.762075   0.000000
   22        9.762096   0.000000
   23       10.058088   0.000000
   24       10.058089   0.000000
   25       10.467629   0.000000
   26       10.467632   0.000000
   27       10.751923   0.000000
   28       10.751940   0.000000
 
  0.1111111E+00  0.3333333E+00  0.0000000E+00  0.2743484E-02
    1      -30.903717   1.000000
    2      -30.903717   1.000000
    3      -30.902565   1.000000
    4      -30.902564   1.000000
    5      -24.213622   1.000000
    6      -24.213621   1.000000
    7      -24.210740   1.000000
    8      -24.210739   1.000000
    9      -24.207698   1.000000
   10      -24.207698   1.000000
   11      -20.558690   1.000000
   12      -20.558690   1.000000
   13       -7.643610   1.000000
   14       -7.643608   1.000000
   15        0.837848   1.000000
   16        0.837851   1.000000
   17        2.744401   1.000000
   18        2.744402   1.000000
   19        6.070361  -0.000000
   20        6.070368  -0.000000
   21        9.098405   0.000000
   22        9.098418   0.000000
   23        9.388861   0.000000
   24        9.388871   0.000000
   25       10.748828   0.000000
   26       10.748832   0.000000
   27       12.039666   0.000000
   28       12.187783   0.000000
 
  0.2222222E+00  0.3333333E+00  0.0000000E+00  0.2743484E-02
    1      -30.903446   1.000000
    2      -30.903446   1.000000
    3      -30.902558   1.000000
    4      -30.902558   1.000000
    5      -24.213453   1.000000
    6      -24.213452   1.000000
    7      -24.210616   1.000000
    8      -24.210616   1.000000
    9      -24.206858   1.000000
   10      -24.206858   1.000000
   11      -20.549544   1.000000
   12      -20.549544   1.000000
   13       -7.668780   1.000000
   14       -7.668778   1.000000
   15        0.845763   1.000000
   16        0.845765   1.000000
   17        2.377347   1.000000
   18        2.377348   1.000000
   19        6.479810   0.000000
   20        6.479827   0.000000
   21        8.138516   0.000000
   22        8.138518   0.000000
   23        9.052412   0.000000
   24        9.052423   0.000000
   25       11.393543   0.000000
   26       11.393543   0.000000
   27       12.542904   0.000000
   28       12.542915   0.000000
 
  0.3333333E+00  0.3333333E+00  0.2775558E-16  0.2743484E-02
    1      -30.903208   1.000000
    2      -30.903208   1.000000
    3      -30.902214   1.000000
    4      -30.902214   1.000000
    5      -24.213652   1.000000
    6      -24.213651   1.000000
    7      -24.210110   1.000000
    8      -24.210110   1.000000
    9      -24.205025   1.000000
   10      -24.205024   1.000000
   11      -20.531947   1.000000
   12      -20.531947   1.000000
   13       -7.722155   1.000000
   14       -7.722153   1.000000
   15        0.673996   1.000000
   16        0.673997   1.000000
   17        2.177699   1.000000
   18        2.177700   1.000000
   19        6.325015   0.000000
   20        6.325040   0.000000
   21        7.621043   0.000000
   22        7.621043   0.000000
   23        9.358679   0.000000
   24        9.358684   0.000000
   25       12.103153   0.000000
   26       12.103154   0.000000
   27       13.193970   0.000000
   28       13.194523   0.000000
 
  0.4444444E+00  0.3333333E+00 -0.5551115E-16  0.2743484E-02
    1      -30.902971   1.000000
    2      -30.902970   1.000000
    3      -30.901836   1.000000
    4      -30.901835   1.000000
    5      -24.213178   1.000000
    6      -24.213178   1.000000
    7      -24.209649   1.000000
    8      -24.209649   1.000000
    9      -24.203814   1.000000
   10      -24.203814   1.000000
   11      -20.514084   1.000000
   12      -20.514084   1.000000
   13       -7.776262   1.000000
   14       -7.776260   1.000000
   15        0.506644   1.000000
   16        0.506645   1.000000
   17        1.907974   1.000000
   18        1.907975   1.000000
   19        6.312204   0.000000
   20        6.312230   0.000000
   21        7.652964   0.000000
   22        7.652965   0.000000
   23        9.613196   0.000000
   24        9.613200   0.000000
   25       12.317095   0.000000
   26       12.317097   0.000000
   27       13.562454   0.000000
   28       13.562552   0.000000
 
 -0.4444444E+00  0.3333333E+00  0.0000000E+00  0.2743484E-02
    1      -30.902785   1.000000
    2      -30.902785   1.000000
    3      -30.901726   1.000000
    4      -30.901726   1.000000
    5      -24.212337   1.000000
    6      -24.212337   1.000000
    7      -24.208907   1.000000
    8      -24.208907   1.000000
    9      -24.204260   1.000000
   10      -24.204260   1.000000
   11      -20.504522   1.000000
   12      -20.504522   1.000000
   13       -7.804838   1.000000
   14       -7.804836   1.000000
   15        0.449812   1.000000
   16        0.449812   1.000000
   17        1.619346   1.000000
   18        1.619347   1.000000
   19        6.571124   0.000000
   20        6.571148   0.000000
   21        8.099792   0.000000
   22        8.099798   0.000000
   23        9.927095   0.000000
   24        9.927096   0.000000
   25       11.765780   0.000000
   26       11.765785   0.000000
   27       12.841528   0.000000
   28       12.841592   0.000000
 
 -0.3333333E+00  0.3333333E+00  0.4250454E-16  0.2743484E-02
    1      -30.902807   1.000000
    2      -30.902807   1.000000
    3      -30.901808   1.000000
    4      -30.901807   1.000000
    5      -24.211926   1.000000
    6      -24.211926   1.000000
    7      -24.207828   1.000000
    8      -24.207828   1.000000
    9      -24.206145   1.000000
   10      -24.206145   1.000000
   11      -20.507673   1.000000
   12      -20.507672   1.000000
   13       -7.796424   1.000000
   14       -7.796422   1.000000
   15        0.446342   1.000000
   16        0.446342   1.000000
   17        1.613902   1.000000
   18        1.613903   1.000000
   19        6.980610   0.000000
   20        6.980627   0.000000
   21        8.257680   0.000000
   22        8.257694   0.000000
   23       10.724202   0.000000
   24       10.724210   0.000000
   25       10.955184   0.000000
   26       10.955185   0.000000
   27       11.900297   0.000000
   28       11.900355   0.000000
 
 -0.2222222E+00  0.3333333E+00  0.4857226E-16  0.2743484E-02
    1      -30.903149   1.000000
    2      -30.903148   1.000000
    3      -30.901918   1.000000
    4      -30.901917   1.000000