Og_FCC                                  
           1
     4.397771    0.000000    0.000000
     2.198886    3.808582   -0.000000
     2.198886    1.269527    3.590765
   Og
   1
Direct configuration=     1
   0.00000000  0.00000000  0.00000000
