   1   1   0   0
  0.2224118E+02  0.3156634E-09  0.3156634E-09  0.3156634E-09  0.1000000E-15
  1.000000000000000E-004
  CAR 
 Og_FCC                                  
     23.78810304    -38.32530683  301    -11.09892884      1.00000000
    -38.325  0.0000E+00  0.0000E+00
    -38.118  0.0000E+00  0.0000E+00
    -37.911  0.0000E+00  0.0000E+00
    -37.704  0.0000E+00  0.0000E+00
    -37.497  0.0000E+00  0.0000E+00
    -37.290  0.0000E+00  0.0000E+00
    -37.083  0.0000E+00  0.0000E+00
    -36.876  0.0000E+00  0.0000E+00
    -36.669  0.0000E+00  0.0000E+00
    -36.462  0.0000E+00  0.0000E+00
    -36.255  0.0000E+00  0.0000E+00
    -36.048  0.0000E+00  0.0000E+00
    -35.841  0.0000E+00  0.0000E+00
    -35.634  0.0000E+00  0.0000E+00
    -35.427  0.1641E+01  0.9786E+00
    -35.220  0.0000E+00  0.2000E+01
    -35.013  0.0000E+00  0.2000E+01
    -34.806  0.0000E+00  0.2000E+01
    -34.599  0.0000E+00  0.2000E+01
    -34.391  0.0000E+00  0.2000E+01
    -34.184  0.0000E+00  0.2000E+01
    -33.977  0.0000E+00  0.2000E+01
    -33.770  0.0000E+00  0.2000E+01
    -33.563  0.0000E+00  0.2000E+01
    -33.356  0.0000E+00  0.2000E+01
    -33.149  0.0000E+00  0.2000E+01
    -32.942  0.0000E+00  0.2000E+01
    -32.735  0.0000E+00  0.2000E+01
    -32.528  0.0000E+00  0.2000E+01
    -32.321  0.0000E+00  0.2000E+01
    -32.114  0.0000E+00  0.2000E+01
    -31.907  0.0000E+00  0.2000E+01
    -31.700  0.0000E+00  0.2000E+01
    -31.493  0.0000E+00  0.2000E+01
    -31.286  0.0000E+00  0.2000E+01
    -31.079  0.0000E+00  0.2000E+01
    -30.872  0.0000E+00  0.2000E+01
    -30.665  0.0000E+00  0.2000E+01
    -30.458  0.0000E+00  0.2000E+01
    -30.251  0.0000E+00  0.2000E+01
    -30.044  0.0000E+00  0.2000E+01
    -29.836  0.0000E+00  0.2000E+01
    -29.629  0.0000E+00  0.2000E+01
    -29.422  0.0000E+00  0.2000E+01
    -29.215  0.0000E+00  0.2000E+01
    -29.008  0.0000E+00  0.2000E+01
    -28.801  0.0000E+00  0.2000E+01
    -28.594  0.0000E+00  0.2000E+01
    -28.387  0.0000E+00  0.2000E+01
    -28.180  0.0000E+00  0.2000E+01
    -27.973  0.0000E+00  0.2000E+01
    -27.766  0.0000E+00  0.2000E+01
    -27.559  0.0000E+00  0.2000E+01
    -27.352  0.0000E+00  0.2000E+01
    -27.145  0.0000E+00  0.2000E+01
    -26.938  0.0000E+00  0.2000E+01
    -26.731  0.0000E+00  0.2000E+01
    -26.524  0.0000E+00  0.2000E+01
    -26.317  0.0000E+00  0.2000E+01
    -26.110  0.0000E+00  0.2000E+01
    -25.903  0.0000E+00  0.2000E+01
    -25.696  0.0000E+00  0.2000E+01
    -25.489  0.0000E+00  0.2000E+01
    -25.281  0.0000E+00  0.2000E+01
    -25.074  0.0000E+00  0.2000E+01
    -24.867  0.0000E+00  0.2000E+01
    -24.660  0.0000E+00  0.2000E+01
    -24.453  0.0000E+00  0.2000E+01
    -24.246  0.0000E+00  0.2000E+01
    -24.039  0.0000E+00  0.2000E+01
    -23.832  0.0000E+00  0.2000E+01
    -23.625  0.0000E+00  0.2000E+01
    -23.418  0.0000E+00  0.2000E+01
    -23.211  0.0000E+00  0.2000E+01
    -23.004  0.0000E+00  0.2000E+01
    -22.797  0.0000E+00  0.2000E+01
    -22.590  0.0000E+00  0.2000E+01
    -22.383  0.0000E+00  0.2000E+01
    -22.176  0.0000E+00  0.2000E+01
    -21.969  0.0000E+00  0.2000E+01
    -21.762  0.0000E+00  0.2000E+01
    -21.555  0.0000E+00  0.2000E+01
    -21.348  0.0000E+00  0.2000E+01
    -21.141  0.0000E+00  0.2000E+01
    -20.934  0.0000E+00  0.2000E+01
    -20.727  0.0000E+00  0.2000E+01
    -20.519  0.0000E+00  0.2000E+01
    -20.312  0.0000E+00  0.2000E+01
    -20.105  0.0000E+00  0.2000E+01
    -19.898  0.0000E+00  0.2000E+01
    -19.691  0.0000E+00  0.2000E+01
    -19.484  0.0000E+00  0.2000E+01
    -19.277  0.0000E+00  0.2000E+01
    -19.070  0.0000E+00  0.2000E+01
    -18.863  0.0000E+00  0.2000E+01
    -18.656  0.0000E+00  0.2000E+01
    -18.449  0.0000E+00  0.2000E+01
    -18.242  0.0000E+00  0.2000E+01
    -18.035  0.0000E+00  0.2000E+01
    -17.828  0.0000E+00  0.2000E+01
    -17.621  0.0000E+00  0.2000E+01
    -17.414  0.0000E+00  0.2000E+01
    -17.207  0.0000E+00  0.2000E+01
    -17.000  0.0000E+00  0.2000E+01
    -16.793  0.0000E+00  0.2000E+01
    -16.586  0.0000E+00  0.2000E+01
    -16.379  0.0000E+00  0.2000E+01
    -16.172  0.0000E+00  0.2000E+01
    -15.964  0.0000E+00  0.2000E+01
    -15.757  0.0000E+00  0.2000E+01
    -15.550  0.0000E+00  0.2000E+01
    -15.343  0.0000E+00  0.2000E+01
    -15.136  0.0000E+00  0.2000E+01
    -14.929  0.0000E+00  0.2000E+01
    -14.722  0.0000E+00  0.2000E+01
    -14.515  0.0000E+00  0.2000E+01
    -14.308  0.0000E+00  0.2000E+01
    -14.101  0.0000E+00  0.2000E+01
    -13.894  0.0000E+00  0.2000E+01
    -13.687  0.0000E+00  0.2000E+01
    -13.480  0.0000E+00  0.2000E+01
    -13.273  0.0000E+00  0.2000E+01
    -13.066  0.0000E+00  0.2000E+01
    -12.859  0.0000E+00  0.2000E+01
    -12.652  0.0000E+00  0.2000E+01
    -12.445  0.0000E+00  0.2000E+01
    -12.238  0.0000E+00  0.2000E+01
    -12.031  0.0000E+00  0.2000E+01
    -11.824  0.0000E+00  0.2000E+01
    -11.617  0.1184E+01  0.3440E+01
    -11.409  0.1073E+01  0.6694E+01
    -11.202  0.2810E+00  0.7956E+01
    -10.995  0.0000E+00  0.8000E+01
    -10.788  0.0000E+00  0.8000E+01
    -10.581  0.0000E+00  0.8000E+01
    -10.374  0.0000E+00  0.8000E+01
    -10.167  0.0000E+00  0.8000E+01
     -9.960  0.0000E+00  0.8000E+01
     -9.753  0.0000E+00  0.8000E+01
     -9.546  0.0000E+00  0.8000E+01
     -9.339  0.0000E+00  0.8000E+01
     -9.132  0.0000E+00  0.8000E+01
     -8.925  0.0000E+00  0.8000E+01
     -8.718  0.0000E+00  0.8000E+01
     -8.511  0.0000E+00  0.8000E+01
     -8.304  0.0000E+00  0.8000E+01
     -8.097  0.0000E+00  0.8000E+01
     -7.890  0.0000E+00  0.8000E+01
     -7.683  0.0000E+00  0.8000E+01
     -7.476  0.0000E+00  0.8000E+01
     -7.269  0.0000E+00  0.8000E+01
     -7.062  0.0000E+00  0.8000E+01
     -6.855  0.0000E+00  0.8000E+01
     -6.647  0.0000E+00  0.8000E+01
     -6.440  0.0000E+00  0.8000E+01
     -6.233  0.0000E+00  0.8000E+01
     -6.026  0.0000E+00  0.8000E+01
     -5.819  0.0000E+00  0.8000E+01
     -5.612  0.0000E+00  0.8000E+01
     -5.405  0.0000E+00  0.8000E+01
     -5.198  0.0000E+00  0.8000E+01
     -4.991  0.0000E+00  0.8000E+01
     -4.784  0.0000E+00  0.8000E+01
     -4.577  0.0000E+00  0.8000E+01
     -4.370  0.0000E+00  0.8000E+01
     -4.163  0.0000E+00  0.8000E+01
     -3.956  0.0000E+00  0.8000E+01
     -3.749  0.0000E+00  0.8000E+01
     -3.542  0.0000E+00  0.8000E+01
     -3.335  0.0000E+00  0.8000E+01
     -3.128  0.0000E+00  0.8000E+01
     -2.921  0.0000E+00  0.8000E+01
     -2.714  0.0000E+00  0.8000E+01
     -2.507  0.0000E+00  0.8000E+01
     -2.300  0.0000E+00  0.8000E+01
     -2.092  0.0000E+00  0.8000E+01
     -1.885  0.0000E+00  0.8000E+01
     -1.678  0.0000E+00  0.8000E+01
     -1.471  0.0000E+00  0.8000E+01
     -1.264  0.0000E+00  0.8000E+01
     -1.057  0.0000E+00  0.8000E+01
     -0.850  0.0000E+00  0.8000E+01
     -0.643  0.0000E+00  0.8000E+01
     -0.436  0.0000E+00  0.8000E+01
     -0.229  0.0000E+00  0.8000E+01
     -0.022  0.0000E+00  0.8000E+01
      0.185  0.0000E+00  0.8000E+01
      0.392  0.4472E-01  0.8009E+01
      0.599  0.0000E+00  0.8009E+01
      0.806  0.0000E+00  0.8009E+01
      1.013  0.0000E+00  0.8009E+01
      1.220  0.0000E+00  0.8083E+01
      1.427  0.0000E+00  0.8139E+01
      1.634  0.0000E+00  0.8139E+01
      1.841  0.0000E+00  0.8139E+01
      2.048  0.0000E+00  0.8139E+01
      2.255  0.0000E+00  0.8139E+01
      2.462  0.0000E+00  0.8250E+01
      2.670  0.0000E+00  0.8250E+01
      2.877  0.0000E+00  0.8250E+01
      3.084  0.0000E+00  0.8472E+01
      3.291  0.0000E+00  0.8472E+01
      3.498  0.0000E+00  0.8546E+01
      3.705  0.0000E+00  0.8546E+01
      3.912  0.0000E+00  0.8546E+01
      4.119  0.0000E+00  0.8602E+01
      4.326  0.0000E+00  0.8602E+01
      4.533  0.0000E+00  0.8602E+01
      4.740  0.0000E+00  0.8602E+01
      4.947  0.0000E+00  0.8824E+01
      5.154  0.0000E+00  0.9046E+01
      5.361  0.0000E+00  0.9046E+01
      5.568  0.0000E+00  0.9046E+01
      5.775  0.0000E+00  0.9269E+01
      5.982  0.0000E+00  0.9269E+01
      6.189  0.0000E+00  0.9269E+01
      6.396  0.0000E+00  0.9565E+01
      6.603  0.0000E+00  0.9565E+01
      6.810  0.0000E+00  0.9565E+01
      7.017  0.0000E+00  0.9676E+01
      7.225  0.0000E+00  0.9676E+01
      7.432  0.0000E+00  0.9926E+01
      7.639  0.0000E+00  0.9926E+01
      7.846  0.0000E+00  0.9926E+01
      8.053  0.0000E+00  0.1026E+02
      8.260  0.0000E+00  0.1051E+02
      8.467  0.0000E+00  0.1051E+02
      8.674  0.0000E+00  0.1062E+02
      8.881  0.0000E+00  0.1062E+02
      9.088  0.0000E+00  0.1062E+02
      9.295  0.0000E+00  0.1095E+02
      9.502  0.0000E+00  0.1095E+02
      9.709  0.5366E+00  0.1106E+02
      9.916  0.0000E+00  0.1129E+02
     10.123  0.0000E+00  0.1136E+02
     10.330  0.0000E+00  0.1147E+02
     10.537  0.0000E+00  0.1147E+02
     10.744  0.2319E-06  0.1147E+02
     10.951  0.0000E+00  0.1192E+02
     11.158  0.0000E+00  0.1214E+02
     11.365  0.0000E+00  0.1214E+02
     11.572  0.0000E+00  0.1236E+02
     11.780  0.0000E+00  0.1258E+02
     11.987  0.0000E+00  0.1261E+02
     12.194  0.0000E+00  0.1267E+02
     12.401  0.0000E+00  0.1267E+02
     12.608  0.0000E+00  0.1267E+02
     12.815  0.0000E+00  0.1283E+02
     13.022  0.0000E+00  0.1283E+02
     13.229  0.0000E+00  0.1283E+02
     13.436  0.0000E+00  0.1317E+02
     13.643  0.0000E+00  0.1317E+02
     13.850  0.0000E+00  0.1339E+02
     14.057  0.0000E+00  0.1339E+02
     14.264  0.0000E+00  0.1361E+02
     14.471  0.0000E+00  0.1380E+02
     14.678  0.0000E+00  0.1380E+02
     14.885  0.0000E+00  0.1402E+02
     15.092  0.0000E+00  0.1402E+02
     15.299  0.0000E+00  0.1430E+02
     15.506  0.0000E+00  0.1430E+02
     15.713  0.0000E+00  0.1435E+02
     15.920  0.0000E+00  0.1469E+02
     16.127  0.0000E+00  0.1469E+02
     16.334  0.0000E+00  0.1502E+02
     16.542  0.0000E+00  0.1546E+02
     16.749  0.0000E+00  0.1546E+02
     16.956  0.0000E+00  0.1546E+02
     17.163  0.0000E+00  0.1565E+02
     17.370  0.0000E+00  0.1587E+02
     17.577  0.0000E+00  0.1619E+02
     17.784  0.0000E+00  0.1619E+02
     17.991  0.0000E+00  0.1619E+02
     18.198  0.5064E-12  0.1619E+02
     18.405  0.0000E+00  0.1656E+02
     18.612  0.0000E+00  0.1658E+02
     18.819  0.0000E+00  0.1681E+02
     19.026  0.0000E+00  0.1703E+02
     19.233  0.0000E+00  0.1706E+02
     19.440  0.0000E+00  0.1714E+02
     19.647  0.0000E+00  0.1736E+02
     19.854  0.0000E+00  0.1736E+02
     20.061  0.0000E+00  0.1758E+02
     20.268  0.0000E+00  0.1769E+02
     20.475  0.0000E+00  0.1778E+02
     20.682  0.0000E+00  0.1778E+02
     20.889  0.0000E+00  0.1778E+02
     21.097  0.0000E+00  0.1800E+02
     21.304  0.0000E+00  0.1800E+02
     21.511  0.0000E+00  0.1800E+02
     21.718  0.0000E+00  0.1800E+02
     21.925  0.0000E+00  0.1800E+02
     22.132  0.0000E+00  0.1800E+02
     22.339  0.0000E+00  0.1800E+02
     22.546  0.0000E+00  0.1800E+02
     22.753  0.0000E+00  0.1800E+02
     22.960  0.0000E+00  0.1800E+02
     23.167  0.0000E+00  0.1800E+02
     23.374  0.0000E+00  0.1800E+02
     23.581  0.0000E+00  0.1800E+02
     23.788  0.0000E+00  0.1800E+02
