    1    1    1    1
  0.2224118E+02  0.3156634E-09  0.3156634E-09  0.3156634E-09  0.1000000E-15
  1.000000000000000E-004
  CAR 
 Og_FCC                                  
      8    216     18
 
  0.0000000E+00  0.0000000E+00  0.0000000E+00  0.4629630E-02
    1      -35.495259   1.000000
    2      -35.495259   1.000000
    3      -11.202946   1.000000
    4      -11.202946   1.000000
    5      -11.108215   1.000000
    6      -11.108215   1.000000
    7      -11.108214   1.000000
    8      -11.108214   1.000000
    9        0.388819   0.000000
   10        0.388819   0.000000
   11       18.451932   0.000000
   12       18.451932   0.000000
   13       18.451970   0.000000
   14       18.451970   0.000000
   15       18.452136   0.000000
   16       18.452136   0.000000
   17       20.334195   0.000000
   18       20.334195   0.000000
 
  0.1666667E+00 -0.1387779E-16 -0.6938894E-17  0.4629630E-02
    1      -35.501987   1.000000
    2      -35.501987   1.000000
    3      -11.692802   1.000000
    4      -11.692802   1.000000
    5      -11.434901   1.000000
    6      -11.434901   1.000000
    7      -11.378215   1.000000
    8      -11.378215   1.000000
    9        1.148889   0.000000
   10        1.148889   0.000000
   11       14.354243   0.000000
   12       14.354243   0.000000
   13       18.202840   0.000000
   14       18.202840   0.000000
   15       18.204462   0.000000
   16       18.204462   0.000000
   17       20.458134   0.000000
   18       20.458134   0.000000
 
  0.3333333E+00  0.0000000E+00 -0.1387779E-16  0.4629630E-02
    1      -35.437754   1.000000
    2      -35.437754   1.000000
    3      -11.458006   1.000000
    4      -11.458006   1.000000
    5      -11.256726   1.000000
    6      -11.256726   1.000000
    7      -11.202823   1.000000
    8      -11.202823   1.000000
    9        3.329761   0.000000
   10        3.329761   0.000000
   11       10.048676   0.000000
   12       10.048676   0.000000
   13       17.480066   0.000000
   14       17.480066   0.000000
   15       17.480821   0.000000
   16       17.480821   0.000000
   17       19.284798   0.000000
   18       19.284798   0.000000
 
  0.5000000E+00  0.0000000E+00 -0.5551115E-16  0.4629630E-02
    1      -35.440760   1.000000
    2      -35.440760   1.000000
    3      -11.711974   1.000000
    4      -11.711974   1.000000
    5      -11.552094   1.000000
    6      -11.552094   1.000000
    7      -11.499046   1.000000
    8      -11.499046   1.000000
    9        6.288269   0.000000
   10        6.288269   0.000000
   11        6.337862   0.000000
   12        6.337862   0.000000
   13       17.077996   0.000000
   14       17.077996   0.000000
   15       17.078165   0.000000
   16       17.078165   0.000000
   17       19.052137   0.000000
   18       19.052137   0.000000
 
 -0.3333333E+00  0.0000000E+00  0.1387779E-16  0.4629630E-02
    1      -35.437754   1.000000
    2      -35.437754   1.000000
    3      -11.458006   1.000000
    4      -11.458006   1.000000
    5      -11.256726   1.000000
    6      -11.256726   1.000000
    7      -11.202823   1.000000
    8      -11.202823   1.000000
    9        3.329761   0.000000
   10        3.329761   0.000000
   11       10.048676   0.000000
   12       10.048676   0.000000
   13       17.480066   0.000000
   14       17.480066   0.000000
   15       17.480821   0.000000
   16       17.480821   0.000000
   17       19.284798   0.000000
   18       19.284798   0.000000
 
 -0.1666667E+00  0.1387779E-16  0.6938894E-17  0.4629630E-02
    1      -35.501987   1.000000
    2      -35.501987   1.000000
    3      -11.692802   1.000000
    4      -11.692802   1.000000
    5      -11.434901   1.000000
    6      -11.434901   1.000000
    7      -11.378215   1.000000
    8      -11.378215   1.000000
    9        1.148889   0.000000
   10        1.148889   0.000000
   11       14.354243   0.000000
   12       14.354243   0.000000
   13       18.202840   0.000000
   14       18.202840   0.000000
   15       18.204462   0.000000
   16       18.204462   0.000000
   17       20.458134   0.000000
   18       20.458134   0.000000
 
  0.0000000E+00  0.1666667E+00  0.6938894E-17  0.4629630E-02
    1      -35.501987   1.000000
    2      -35.501987   1.000000
    3      -11.692802   1.000000
    4      -11.692802   1.000000
    5      -11.434901   1.000000
    6      -11.434901   1.000000
    7      -11.378215   1.000000
    8      -11.378215   1.000000
    9        1.148890   0.000000
   10        1.148890   0.000000
   11       14.354250   0.000000
   12       14.354250   0.000000
   13       18.202833   0.000000
   14       18.202833   0.000000
   15       18.204455   0.000000
   16       18.204455   0.000000
   17       20.458207   0.000000
   18       20.458207   0.000000
 
  0.1666667E+00  0.1666667E+00 -0.1387779E-16  0.4629630E-02
    1      -35.479464   1.000000
    2      -35.479464   1.000000
    3      -11.507749   1.000000
    4      -11.507749   1.000000
    5      -11.316208   1.000000
    6      -11.316208   1.000000
    7      -11.263650   1.000000
    8      -11.263650   1.000000
    9        1.399314   0.000000
   10        1.399314   0.000000
   11       15.126436   0.000000
   12       15.126436   0.000000
   13       17.107755   0.000000
   14       17.107755   0.000000
   15       17.113290   0.000000
   16       17.113290   0.000000
   17       17.505798   0.000000
   18       17.505798   0.000000
 
  0.3333333E+00  0.1666667E+00 -0.2775558E-16  0.4629630E-02
    1      -35.458996   1.000000
    2      -35.458996   1.000000
    3      -11.703008   1.000000
    4      -11.703008   1.000000
    5      -11.524410   1.000000
    6      -11.524410   1.000000
    7      -11.465183   1.000000
    8      -11.465183   1.000000
    9        3.047422   0.000000
   10        3.047422   0.000000
   11       11.665716   0.000000
   12       11.665716   0.000000
   13       14.791200   0.000000
   14       14.791200   0.000000
   15       16.513152   0.000000
   16       16.513152   0.000000
   17       18.221610   0.000000
   18       18.221610   0.000000
 
  0.5000000E+00  0.1666667E+00  0.0000000E+00  0.4629630E-02
    1      -35.429238   1.000000
    2      -35.429238   1.000000
    3      -11.695224   1.000000
    4      -11.695224   1.000000
    5      -11.496859   1.000000
    6      -11.496859   1.000000
    7      -11.439555   1.000000
    8      -11.439555   1.000000
    9        5.733653   0.000000
   10        5.733653   0.000000
   11        7.917611   0.000000
   12        7.917611   0.000000
   13       13.663245   0.000000
   14       13.663245   0.000000
   15       16.474435   0.000000
   16       16.474435   0.000000
   17       18.798034   0.000000
   18       18.798034   0.000000
 
 -0.3333333E+00  0.1666667E+00  0.6938894E-17  0.4629630E-02
    1      -35.426658   1.000000
    2      -35.426658   1.000000
    3      -11.618745   1.000000
    4      -11.618745   1.000000
    5      -11.383237   1.000000
    6      -11.383237   1.000000
    7      -11.274174   1.000000
    8      -11.274174   1.000000
    9        4.772986   0.000000
   10        4.772986   0.000000
   11        9.150422   0.000000
   12        9.150422   0.000000
   13       13.270491   0.000000
   14       13.270491   0.000000
   15       17.240130   0.000000
   16       17.240130   0.000000
   17       20.048892   0.000000
   18       20.048892   0.000000
 
 -0.1666667E+00  0.1666667E+00  0.7166211E-17  0.4629630E-02
    1      -35.469615   1.000000
    2      -35.469615   1.000000
    3      -11.614770   1.000000
    4      -11.614770   1.000000
    5      -11.513040   1.000000
    6      -11.513040   1.000000
    7      -11.396296   1.000000
    8      -11.396296   1.000000
    9        2.386552   0.000000
   10        2.386552   0.000000
   11       12.629845   0.000000
   12       12.629845   0.000000
   13       14.343235   0.000000
   14       14.343235   0.000000
   15       18.945578   0.000000
   16       18.945578   0.000000
   17       20.097796   0.000000
   18       20.097796   0.000000
 
  0.0000000E+00  0.3333333E+00 -0.1387779E-16  0.4629630E-02
    1      -35.437754   1.000000
    2      -35.437754   1.000000
    3      -11.458006   1.000000
    4      -11.458006   1.000000
    5      -11.256726   1.000000
    6      -11.256726   1.000000
    7      -11.202823   1.000000
    8      -11.202823   1.000000
    9        3.329763   0.000000
   10        3.329763   0.000000
   11       10.048682   0.000000
   12       10.048682   0.000000
   13       17.480055   0.000000
   14       17.480055   0.000000
   15       17.480811   0.000000
   16       17.480811   0.000000
   17       19.284870   0.000000
   18       19.284870   0.000000
 
  0.1666667E+00  0.3333333E+00  0.2775558E-16  0.4629630E-02
    1      -35.458996   1.000000
    2      -35.458996   1.000000
    3      -11.703008   1.000000
    4      -11.703008   1.000000
    5      -11.524410   1.000000
    6      -11.524410   1.000000
    7      -11.465183   1.000000
    8      -11.465183   1.000000
    9        3.047422   0.000000
   10        3.047422   0.000000
   11       11.665729   0.000000
   12       11.665729   0.000000
   13       14.791204   0.000000
   14       14.791204   0.000000
   15       16.513161   0.000000
   16       16.513161   0.000000
   17       18.221570   0.000000
   18       18.221570   0.000000
 
  0.3333333E+00  0.3333333E+00  0.0000000E+00  0.4629630E-02
    1      -35.436390   1.000000
    2      -35.436390   1.000000
    3      -11.675879   1.000000
    4      -11.675879   1.000000
    5      -11.516789   1.000000
    6      -11.516789   1.000000
    7      -11.465948   1.000000
    8      -11.465948   1.000000
    9        4.102175   0.000000
   10        4.102175   0.000000
   11       12.106078   0.000000
   12       12.106078   0.000000
   13       12.653515   0.000000
   14       12.653515   0.000000
   15       15.887688   0.000000
   16       15.887688   0.000000
   17       15.898487   0.000000
   18       15.898487   0.000000
 
  0.5000000E+00  0.3333333E+00  0.0000000E+00  0.4629630E-02
    1      -35.412772   1.000000
    2      -35.412772   1.000000
    3      -11.615657   1.000000
    4      -11.615657   1.000000
    5      -11.527482   1.000000
    6      -11.527482   1.000000
    7      -11.450863   1.000000
    8      -11.450863   1.000000
    9        6.229282   0.000000
   10        6.229282   0.000000
   11        9.747683   0.000000
   12        9.747683   0.000000
   13       10.931783   0.000000
   14       10.931783   0.000000
   15       15.784410   0.000000
   16       15.784410   0.000000
   17       16.220297   0.000000
   18       16.220297   0.000000
 
 -0.3333333E+00  0.3333333E+00  0.1433242E-16  0.4629630E-02
    1      -35.425809   1.000000
    2      -35.425809   1.000000
    3      -11.803165   1.000000
    4      -11.803165   1.000000
    5      -11.704289   1.000000
    6      -11.704289   1.000000
    7      -11.515089   1.000000
    8      -11.515089   1.000000
    9        6.988157   0.000000
   10        6.988157   0.000000
   11        9.101439   0.000000
   12        9.101439   0.000000
   13        9.706357   0.000000
   14        9.706357   0.000000
   15       16.211521   0.000000
   16       16.211521   0.000000
   17       17.511284   0.000000
   18       17.511284   0.000000
 
 -0.1666667E+00  0.3333333E+00 -0.6938894E-17  0.4629630E-02
    1      -35.426658   1.000000
    2      -35.426658   1.000000
    3      -11.618745   1.000000
    4      -11.618745   1.000000
    5      -11.383237   1.000000
    6      -11.383237   1.000000
    7      -11.274174   1.000000
    8      -11.274174   1.000000
    9        4.772986   0.000000
   10        4.772986   0.000000
   11        9.150428   0.000000
   12        9.150428   0.000000
   13       13.270483   0.000000
   14       13.270483   0.000000
   15       17.240145   0.000000
   16       17.240145   0.000000
   17       20.048889   0.000000
   18       20.048889   0.000000
 
  0.0000000E+00  0.5000000E+00 -0.5551115E-16  0.4629630E-02
    1      -35.440760   1.000000
    2      -35.440760   1.000000
    3      -11.711974   1.000000
    4      -11.711974   1.000000
    5      -11.552095   1.000000
    6      -11.552095   1.000000
    7      -11.499047   1.000000
    8      -11.499047   1.000000
    9        6.288230   0.000000
   10        6.288230   0.000000
   11        6.337909   0.000000
   12        6.337909   0.000000
   13       17.077984   0.000000
   14       17.077984   0.000000
   15       17.078151   0.000000
   16       17.078151   0.000000
   17       19.052210   0.000000
   18       19.052210   0.000000
 
  0.1666667E+00  0.5000000E+00 -0.2775558E-16  0.4629630E-02
    1      -35.429238   1.000000
    2      -35.429238   1.000000
    3      -11.695224   1.000000
    4      -11.695224   1.000000
    5      -11.496859   1.000000
    6      -11.496859   1.000000
    7      -11.439555   1.000000
    8      -11.439555   1.000000
    9        5.733649   0.000000
   10        5.733649   0.000000
   11        7.917629   0.000000
   12        7.917629   0.000000
   13       13.663235   0.000000
   14       13.663235   0.000000
   15       16.474448   0.000000
   16       16.474448   0.000000
   17       18.798018   0.000000
   18       18.798018   0.000000
 
  0.3333333E+00  0.5000000E+00 -0.5551115E-16  0.4629630E-02
    1      -35.412772   1.000000
    2      -35.412772   1.000000
    3      -11.615657   1.000000
    4      -11.615657   1.000000
    5      -11.527482   1.000000
    6      -11.527482   1.000000
    7      -11.450863   1.000000
    8      -11.450863   1.000000
    9        6.229276   0.000000
   10        6.229276   0.000000
   11        9.747721   0.000000
   12        9.747722   0.000000
   13       10.931757   0.000000
   14       10.931757   0.000000
   15       15.784412   0.000000
   16       15.784412   0.000000
   17       16.220284   0.000000
   18       16.220284   0.000000
 
  0.5000000E+00  0.5000000E+00 -0.1110223E-15  0.4629630E-02
    1      -35.397254   1.000000
    2      -35.397254   1.000000
    3      -11.680147   1.000000
    4      -11.680147   1.000000
    5      -11.308603   1.000000
    6      -11.308603   1.000000
    7      -11.252546   1.000000
    8      -11.252546   1.000000
    9        7.321387   0.000000
   10        7.321387   0.000000
   11        8.230842   0.000000
   12        8.230842   0.000000
   13       11.827947   0.000000
   14       11.827947   0.000000
   15       15.614416   0.000000
   16       15.614416   0.000000
   17       15.626978   0.000000
   18       15.626978   0.000000
 
 -0.3333333E+00  0.5000000E+00 -0.1387779E-16  0.4629630E-02
    1      -35.412772   1.000000
    2      -35.412772   1.000000
    3      -11.615657   1.000000
    4      -11.615657   1.000000
    5      -11.527482   1.000000
    6      -11.527482   1.000000
    7      -11.450863   1.000000
    8      -11.450863   1.000000
    9        6.229276   0.000000
   10        6.229276   0.000000
   11        9.747721   0.000000
   12        9.747722   0.000000
   13       10.931757   0.000000
   14       10.931757   0.000000
   15       15.784412   0.000000
   16       15.784412   0.000000
   17       16.220284   0.000000
   18       16.220284   0.000000
 
 -0.1666667E+00  0.5000000E+00  0.1387779E-16  0.4629630E-02
    1      -35.429238   1.000000
    2      -35.429238   1.000000
    3      -11.695224   1.000000
    4      -11.695224   1.000000
    5      -11.496859   1.000000
    6      -11.496859   1.000000
    7      -11.439555   1.000000
    8      -11.439555   1.000000
    9        5.733649   0.000000
   10        5.733649   0.000000
   11        7.917629   0.000000
   12        7.917629   0.000000
   13       13.663235   0.000000
   14       13.663235   0.000000
   15       16.474448   0.000000
   16       16.474448   0.000000
   17       18.798018   0.000000
   18       18.798018   0.000000
 
  0.0000000E+00 -0.3333333E+00  0.1387779E-16  0.4629630E-02
    1      -35.437754   1.000000
    2      -35.437754   1.000000
    3      -11.458006   1.000000
    4      -11.458006   1.000000
    5      -11.256726   1.000000
    6      -11.256726   1.000000
    7      -11.202823   1.000000
    8      -11.202823   1.000000
    9        3.329763   0.000000
   10        3.329763   0.000000
   11       10.048682   0.000000
   12       10.048682   0.000000
   13       17.480055   0.000000
   14       17.480055   0.000000
   15       17.480811   0.000000
   16       17.480811   0.000000
   17       19.284870   0.000000
   18       19.284870   0.000000
 
  0.1666667E+00 -0.3333333E+00  0.6938894E-17  0.4629630E-02
    1      -35.426658   1.000000
    2      -35.426658   1.000000
    3      -11.618745   1.000000
    4      -11.618745   1.000000
    5      -11.383237   1.000000
    6      -11.383237   1.000000
    7      -11.274174   1.000000
    8      -11.274174   1.000000
    9        4.772986   0.000000
   10        4.772986   0.000000
   11        9.150428   0.000000
   12        9.150428   0.000000
   13       13.270483   0.000000
   14       13.270483   0.000000
   15       17.240145   0.000000
   16       17.240145   0.000000
   17       20.048889   0.000000
   18       20.048889   0.000000
 
  0.3333333E+00 -0.3333333E+00 -0.1433242E-16  0.4629630E-02
    1      -35.425809   1.000000
    2      -35.425809   1.000000
    3      -11.803165   1.000000
    4      -11.803165   1.000000
    5      -11.704289   1.000000
    6      -11.704289   1.000000
    7      -11.515089   1.000000
    8      -11.515089   1.000000
    9        6.988157   0.000000
   10        6.988157   0.000000
   11        9.101439   0.000000
   12        9.101439   0.000000
   13        9.706357   0.000000
   14        9.706357   0.000000
   15       16.211521   0.000000
   16       16.211521   0.000000
   17       17.511284   0.000000
   18       17.511284   0.000000
 
  0.5000000E+00 -0.3333333E+00 -0.1387779E-16  0.4629630E-02
    1      -35.412772   1.000000
    2      -35.412772   1.000000
    3      -11.615657   1.000000
    4      -11.615657   1.000000
    5      -11.527482   1.000000
    6      -11.527482   1.000000
    7      -11.450863   1.000000
    8      -11.450863   1.000000
    9        6.229282   0.000000
   10        6.229282   0.000000
   11        9.747683   0.000000
   12        9.747683   0.000000
   13       10.931783   0.000000
   14       10.931783   0.000000
   15       15.784410   0.000000
   16       15.784410   0.000000
   17       16.220297   0.000000
   18       16.220297   0.000000
 
 -0.3333333E+00 -0.3333333E+00  0.0000000E+00  0.4629630E-02
    1      -35.436390   1.000000
    2      -35.436390   1.000000
    3      -11.675879   1.000000
    4      -11.675879   1.000000
    5      -11.516789   1.000000
    6      -11.516789   1.000000
    7      -11.465948   1.000000
    8      -11.465948   1.000000
    9        4.102175   0.000000
   10        4.102175   0.000000
   11       12.106078   0.000000
   12       12.106078   0.000000
   13       12.653515   0.000000
   14       12.653515   0.000000
   15       15.887688   0.000000
   16       15.887688   0.000000
   17       15.898487   0.000000
   18       15.898487   0.000000
 
 -0.1666667E+00 -0.3333333E+00 -0.2775558E-16  0.4629630E-02
    1      -35.458996   1.000000
    2      -35.458996   1.000000
    3      -11.703008   1.000000
    4      -11.703008   1.000000
    5      -11.524410   1.000000
    6      -11.524410   1.000000
    7      -11.465183   1.000000
    8      -11.465183   1.000000
    9        3.047422   0.000000
   10        3.047422   0.000000
   11       11.665729   0.000000
   12       11.665729   0.000000
   13       14.791204   0.000000
   14       14.791204   0.000000
   15       16.513161   0.000000
   16       16.513161   0.000000
   17       18.221570   0.000000
   18       18.221570   0.000000
 
  0.0000000E+00 -0.1666667E+00 -0.6938894E-17  0.4629630E-02
    1      -35.501987   1.000000
    2      -35.501987   1.000000
    3      -11.692802   1.000000
    4      -11.692802   1.000000
    5      -11.434901   1.000000
    6      -11.434901   1.000000
    7      -11.378215   1.000000
    8      -11.378215   1.000000
    9        1.148890   0.000000
   10        1.148890   0.000000
   11       14.354250   0.000000
   12       14.354250   0.000000
   13       18.202833   0.000000
   14       18.202833   0.000000
   15       18.204455   0.000000
   16       18.204455   0.000000
   17       20.458207   0.000000
   18       20.458207   0.000000
 
  0.1666667E+00 -0.1666667E+00 -0.7166211E-17  0.4629630E-02
    1      -35.469615   1.000000
    2      -35.469615   1.000000
    3      -11.614770   1.000000
    4      -11.614770   1.000000
    5      -11.513040   1.000000
    6      -11.513040   1.000000
    7      -11.396296   1.000000
    8      -11.396296   1.000000
    9        2.386552   0.000000
   10        2.386552   0.000000
   11       12.629845   0.000000
   12       12.629845   0.000000
   13       14.343235   0.000000
   14       14.343235   0.000000
   15       18.945578   0.000000
   16       18.945578   0.000000
   17       20.097796   0.000000
   18       20.097796   0.000000
 
  0.3333333E+00 -0.1666667E+00 -0.6938894E-17  0.4629630E-02
    1      -35.426658   1.000000
    2      -35.426658   1.000000
    3      -11.618745   1.000000
    4      -11.618745   1.000000
    5      -11.383237   1.000000
    6      -11.383237   1.000000
    7      -11.274174   1.000000
    8      -11.274174   1.000000
    9        4.772986   0.000000
   10        4.772986   0.000000
   11        9.150422   0.000000
   12        9.150422   0.000000
   13       13.270491   0.000000
   14       13.270491   0.000000
   15       17.240130   0.000000
   16       17.240130   0.000000
   17       20.048892   0.000000
   18       20.048892   0.000000
 
  0.5000000E+00 -0.1666667E+00  0.0000000E+00  0.4629630E-02
    1      -35.429238   1.000000
    2      -35.429238   1.000000
    3      -11.695224   1.000000
    4      -11.695224   1.000000
    5      -11.496859   1.000000
    6      -11.496859   1.000000
    7      -11.439555   1.000000
    8      -11.439555   1.000000
    9        5.733653   0.000000
   10        5.733653   0.000000
   11        7.917611   0.000000
   12        7.917611   0.000000
   13       13.663245   0.000000
   14       13.663245   0.000000
   15       16.474435   0.000000
   16       16.474435   0.000000
   17       18.798034   0.000000
   18       18.798034   0.000000
 
 -0.3333333E+00 -0.1666667E+00  0.2775558E-16  0.4629630E-02
    1      -35.458996   1.000000
    2      -35.458996   1.000000
    3      -11.703008   1.000000
    4      -11.703008   1.000000
    5      -11.524410   1.000000
    6      -11.524410   1.000000
    7      -11.465183   1.000000
    8      -11.465183   1.000000
    9        3.047422   0.000000
   10        3.047422   0.000000
   11       11.665716   0.000000
   12       11.665716   0.000000
   13       14.791200   0.000000
   14       14.791200   0.000000
   15       16.513152   0.000000
   16       16.513152   0.000000
   17       18.221610   0.000000
   18       18.221610   0.000000
 
 -0.1666667E+00 -0.1666667E+00  0.1387779E-16  0.4629630E-02
    1      -35.479464   1.000000
    2      -35.479464   1.000000
    3      -11.507749   1.000000
    4      -11.507749   1.000000
    5      -11.316208   1.000000
    6      -11.316208   1.000000
    7      -11.263650   1.000000
    8      -11.263650   1.000000
    9        1.399314   0.000000
   10        1.399314   0.000000
   11       15.126436   0.000000
   12       15.126436   0.000000
   13       17.107755   0.000000
   14       17.107755   0.000000
   15       17.113290   0.000000
   16       17.113290   0.000000
   17       17.505798   0.000000
   18       17.505798   0.000000
 
  0.0000000E+00  0.0000000E+00  0.1666667E+00  0.4629630E-02
    1      -35.501987   1.000000
    2      -35.501987   1.000000
    3      -11.692801   1.000000
    4      -11.692801   1.000000
    5      -11.434902   1.000000
    6      -11.434902   1.000000
    7      -11.378216   1.000000
    8      -11.378216   1.000000
    9        1.148890   0.000000
   10        1.148890   0.000000
   11       14.354257   0.000000
   12       14.354257   0.000000
   13       18.202819   0.000000
   14       18.202819   0.000000
   15       18.204440   0.000000
   16       18.204440   0.000000
   17       20.458203   0.000000
   18       20.458203   0.000000
 
  0.1666667E+00 -0.1387779E-16  0.1666667E+00  0.4629630E-02
    1      -35.479464   1.000000
    2      -35.479464   1.000000
    3      -11.507749   1.000000
    4      -11.507749   1.000000
    5      -11.316208   1.000000
    6      -11.316208   1.000000
    7      -11.263650   1.000000
    8      -11.263650   1.000000
    9        1.399314   0.000000
   10        1.399314   0.000000
   11       15.126460   0.000000
   12       15.126460   0.000000
   13       17.107741   0.000000
   14       17.107741   0.000000
   15       17.113277   0.000000
   16       17.113277   0.000000
   17       17.505794   0.000000
   18       17.505794   0.000000
 
  0.3333333E+00  0.0000000E+00  0.1666667E+00  0.4629630E-02
    1      -35.458996   1.000000
    2      -35.458996   1.000000
    3      -11.703009   1.000000
    4      -11.703009   1.000000
    5      -11.524409   1.000000
    6      -11.524409   1.000000
    7      -11.465183   1.000000
    8      -11.465183   1.000000
    9        3.047424   0.000000
   10        3.047424   0.000000
   11       11.665723   0.000000
   12       11.665723   0.000000
   13       14.791192   0.000000
   14       14.791192   0.000000
   15       16.513160   0.000000
   16       16.513160   0.000000
   17       18.221599   0.000000
   18       18.221599   0.000000
 
  0.5000000E+00  0.0000000E+00  0.1666667E+00  0.4629630E-02
    1      -35.429238   1.000000
    2      -35.429238   1.000000
    3      -11.695223   1.000000
    4      -11.695223   1.000000
    5      -11.496858   1.000000
    6      -11.496858   1.000000
    7      -11.439556   1.000000
    8      -11.439556   1.000000
    9        5.733654   0.000000
   10        5.733654   0.000000
   11        7.917609   0.000000
   12        7.917609   0.000000
   13       13.663239   0.000000
   14       13.663239   0.000000
   15       16.474459   0.000000
   16       16.474459   0.000000
   17       18.798011   0.000000
   18       18.798011   0.000000
 
 -0.3333333E+00  0.0000000E+00  0.1666667E+00  0.4629630E-02
    1      -35.426658   1.000000
    2      -35.426658   1.000000
    3      -11.618745   1.000000
    4      -11.618745   1.000000
    5      -11.383235   1.000000
    6      -11.383235   1.000000
    7      -11.274175   1.000000
    8      -11.274175   1.000000
    9        4.772983   0.000000
   10        4.772983   0.000000
   11        9.150419   0.000000
   12        9.150419   0.000000
   13       13.270494   0.000000
   14       13.270494   0.000000
   15       17.240165   0.000000
   16       17.240165   0.000000
   17       20.048862   0.000000
   18       20.048862   0.000000
 
 -0.1666667E+00  0.1387779E-16  0.1666667E+00  0.4629630E-02
    1      -35.469615   1.000000
    2      -35.469615   1.000000
    3      -11.614767   1.000000
    4      -11.614767   1.000000
    5      -11.513039   1.000000
    6      -11.513039   1.000000
    7      -11.396297   1.000000
    8      -11.396297   1.000000
    9        2.386547   0.000000
   10        2.386547   0.000000
   11       12.629833   0.000000
   12       12.629833   0.000000
   13       14.343259   0.000000
   14       14.343259   0.000000
   15       18.945621   0.000000
   16       18.945621   0.000000
   17       20.097746   0.000000
   18       20.097746   0.000000
 
  0.0000000E+00  0.1666667E+00  0.1666667E+00  0.4629630E-02
    1      -35.479464   1.000000
    2      -35.479464   1.000000
    3      -11.507750   1.000000
    4      -11.507750   1.000000
    5      -11.316208   1.000000
    6      -11.316208   1.000000
    7      -11.263649   1.000000
    8      -11.263649   1.000000
    9        1.399314   0.000000
   10        1.399314   0.000000
   11       15.126437   0.000000
   12       15.126437   0.000000
   13       17.107754   0.000000
   14       17.107754   0.000000
   15       17.113290   0.000000
   16       17.113290   0.000000
   17       17.505794   0.000000
   18       17.505794   0.000000
 
  0.1666667E+00  0.1666667E+00  0.1666667E+00  0.4629630E-02
    1      -35.501987   1.000000
    2      -35.501987   1.000000
    3      -11.692803   1.000000
    4      -11.692803   1.000000
    5      -11.434901   1.000000
    6      -11.434901   1.000000
    7      -11.378215   1.000000
    8      -11.378215   1.000000
    9        1.148890   0.000000
   10        1.148890   0.000000
   11       14.354250   0.000000
   12       14.354250   0.000000
   13       18.202848   0.000000
   14       18.202848   0.000000
   15       18.204470   0.000000
   16       18.204470   0.000000
   17       20.458146   0.000000
   18       20.458146   0.000000
 
  0.3333333E+00  0.1666667E+00  0.1666667E+00  0.4629630E-02
    1      -35.469615   1.000000
    2      -35.469615   1.000000
    3      -11.614770   1.000000
    4      -11.614770   1.000000
    5      -11.513040   1.000000
    6      -11.513040   1.000000
    7      -11.396295   1.000000
    8      -11.396295   1.000000
    9        2.386552   0.000000
   10        2.386552   0.000000
   11       12.629845   0.000000
   12       12.629845   0.000000
   13       14.343233   0.000000
   14       14.343233   0.000000
   15       18.945630   0.000000
   16       18.945630   0.000000
   17       20.097796   0.000000
   18       20.097796   0.000000
 
  0.5000000E+00  0.1666667E+00  0.1666667E+00  0.4629630E-02
    1      -35.426658   1.000000
    2      -35.426658   1.000000
    3      -11.618745   1.000000
    4      -11.618745   1.000000
    5      -11.383238   1.000000