    1    1    1    1
  0.1860393E+02  0.2974221E-09  0.2974221E-09  0.2974221E-09  0.1000000E-15
  1.000000000000000E-004
  CAR 
 Og_FCC                                  
      8    216     20
 
  0.0000000E+00  0.0000000E+00  0.0000000E+00  0.4629630E-02
    1      -35.106406   1.000000
    2      -35.106406   1.000000
    3      -10.807341   1.000000
    4      -10.807341   1.000000
    5      -10.708572   1.000000
    6      -10.708572   1.000000
    7      -10.708572   1.000000
    8      -10.708572   1.000000
    9        1.200596   0.000000
   10        1.200596   0.000000
   11       20.889094   0.000000
   12       20.889094   0.000000
   13       20.889104   0.000000
   14       20.889105   0.000000
   15       20.889341   0.000000
   16       20.889341   0.000000
   17       23.107930   0.000000
   18       23.107930   0.000000
   19       26.199859   0.000000
   20       26.200635   0.000000
 
  0.1666667E+00  0.0000000E+00  0.6938894E-17  0.4629630E-02
    1      -35.055684   1.000000
    2      -35.055684   1.000000
    3      -10.888362   1.000000
    4      -10.888362   1.000000
    5      -10.417114   1.000000
    6      -10.417114   1.000000
    7      -10.358786   1.000000
    8      -10.358786   1.000000
    9        2.142847   0.000000
   10        2.142847   0.000000
   11       16.514143   0.000000
   12       16.514143   0.000000
   13       20.721832   0.000000
   14       20.721832   0.000000
   15       20.723235   0.000000
   16       20.723235   0.000000
   17       23.332781   0.000000
   18       23.332781   0.000000
   19       24.889963   0.000000
   20       24.889993   0.000000
 
  0.3333333E+00 -0.2775558E-16  0.0000000E+00  0.4629630E-02
    1      -35.013987   1.000000
    2      -35.013987   1.000000
    3      -11.475933   1.000000
    4      -11.475933   1.000000
    5      -10.828223   1.000000
    6      -10.828223   1.000000
    7      -10.766291   1.000000
    8      -10.766291   1.000000
    9        4.491458   0.000000
   10        4.491459   0.000000
   11       11.735097   0.000000
   12       11.735097   0.000000
   13       19.838870   0.000000
   14       19.838870   0.000000
   15       19.839528   0.000000
   16       19.839528   0.000000
   17       21.937806   0.000000
   18       21.937806   0.000000
   19       24.967823   0.000000
   20       24.973803   0.000000
 
  0.5000000E+00  0.0000000E+00 -0.2775558E-16  0.4629630E-02
    1      -34.992254   1.000000
    2      -34.992254   1.000000
    3      -11.928397   1.000000
    4      -11.928397   1.000000
    5      -10.915691   1.000000
    6      -10.915691   1.000000
    7      -10.852432   1.000000
    8      -10.852432   1.000000
    9        7.595156   0.000000
   10        7.595156   0.000000
   11        7.795598   0.000000
   12        7.795598   0.000000
   13       19.352116   0.000000
   14       19.352116   0.000000
   15       19.352336   0.000000
   16       19.352336   0.000000
   17       21.646008   0.000000
   18       21.646008   0.000000
   19       25.303655   0.000000
   20       25.306101   0.000000
 
 -0.3333333E+00  0.2775558E-16  0.0000000E+00  0.4629630E-02
    1      -35.013987   1.000000
    2      -35.013987   1.000000
    3      -11.475933   1.000000
    4      -11.475933   1.000000
    5      -10.828223   1.000000
    6      -10.828223   1.000000
    7      -10.766291   1.000000
    8      -10.766291   1.000000
    9        4.491458   0.000000
   10        4.491459   0.000000
   11       11.735097   0.000000
   12       11.735097   0.000000
   13       19.838870   0.000000
   14       19.838870   0.000000
   15       19.839528   0.000000
   16       19.839528   0.000000
   17       21.937806   0.000000
   18       21.937806   0.000000
   19       24.969191   0.000000
   20       24.969642   0.000000
 
 -0.1666667E+00  0.0000000E+00 -0.6938894E-17  0.4629630E-02
    1      -35.055684   1.000000
    2      -35.055684   1.000000
    3      -10.888362   1.000000
    4      -10.888362   1.000000
    5      -10.417114   1.000000
    6      -10.417114   1.000000
    7      -10.358786   1.000000
    8      -10.358786   1.000000
    9        2.142847   0.000000
   10        2.142847   0.000000
   11       16.514143   0.000000
   12       16.514143   0.000000
   13       20.721832   0.000000
   14       20.721832   0.000000
   15       20.723235   0.000000
   16       20.723235   0.000000
   17       23.332781   0.000000
   18       23.332781   0.000000
   19       24.889910   0.000000
   20       24.890002   0.000000
 
  0.0000000E+00  0.1666667E+00  0.6938894E-17  0.4629630E-02
    1      -35.055684   1.000000
    2      -35.055684   1.000000
    3      -10.888363   1.000000
    4      -10.888362   1.000000
    5      -10.417114   1.000000
    6      -10.417114   1.000000
    7      -10.358786   1.000000
    8      -10.358786   1.000000
    9        2.142847   0.000000
   10        2.142847   0.000000
   11       16.514143   0.000000
   12       16.514143   0.000000
   13       20.721831   0.000000
   14       20.721831   0.000000
   15       20.723235   0.000000
   16       20.723235   0.000000
   17       23.332782   0.000000
   18       23.332782   0.000000
   19       24.889919   0.000000
   20       24.889974   0.000000
 
  0.1666667E+00  0.1666667E+00  0.0000000E+00  0.4629630E-02
    1      -35.055548   1.000000
    2      -35.055548   1.000000
    3      -10.880586   1.000000
    4      -10.880586   1.000000
    5      -10.651865   1.000000
    6      -10.651865   1.000000
    7      -10.597310   1.000000
    8      -10.597310   1.000000
    9        2.432654   0.000000
   10        2.432654   0.000000
   11       17.182696   0.000000
   12       17.182696   0.000000
   13       19.701775   0.000000
   14       19.701775   0.000000
   15       19.707512   0.000000
   16       19.707512   0.000000
   17       19.877129   0.000000
   18       19.877129   0.000000
   19       27.707603   0.000000
   20       27.707604   0.000000
 
  0.3333333E+00  0.1666667E+00  0.2775558E-16  0.4629630E-02
    1      -35.012301   1.000000
    2      -35.012301   1.000000
    3      -11.344484   1.000000
    4      -11.344484   1.000000
    5      -10.834567   1.000000
    6      -10.834567   1.000000
    7      -10.770883   1.000000
    8      -10.770883   1.000000
    9        4.244506   0.000000
   10        4.244506   0.000000
   11       13.565009   0.000000
   12       13.565009   0.000000
   13       16.836539   0.000000
   14       16.836539   0.000000
   15       19.085883   0.000000
   16       19.085884   0.000000
   17       20.938916   0.000000
   18       20.938916   0.000000
   19       27.070477   0.000000
   20       27.070477   0.000000
 
  0.5000000E+00  0.1666667E+00  0.5551115E-16  0.4629630E-02
    1      -34.959993   1.000000
    2      -34.959993   1.000000
    3      -11.661425   1.000000
    4      -11.661425   1.000000
    5      -10.720067   1.000000
    6      -10.720067   1.000000
    7      -10.659838   1.000000
    8      -10.659838   1.000000
    9        7.111111   0.000000
   10        7.111111   0.000000
   11        9.557378   0.000000
   12        9.557379   0.000000
   13       15.638458   0.000000
   14       15.638458   0.000000
   15       18.972207   0.000000
   16       18.972207   0.000000
   17       21.835854   0.000000
   18       21.835855   0.000000
   19       26.973568   0.000000
   20       26.973594   0.000000
 
 -0.3333333E+00  0.1666667E+00 -0.2081668E-16  0.4629630E-02
    1      -34.979471   1.000000
    2      -34.979471   1.000000
    3      -11.615422   1.000000
    4      -11.615422   1.000000
    5      -10.916447   1.000000
    6      -10.916447   1.000000
    7      -10.708382   1.000000
    8      -10.708382   1.000000
    9        6.063144   0.000000
   10        6.063145   0.000000
   11       10.834012   0.000000
   12       10.834012   0.000000
   13       15.273724   0.000000
   14       15.273724   0.000000
   15       19.664866   0.000000
   16       19.664866   0.000000
   17       23.200962   0.000000
   18       23.200962   0.000000
   19       25.149556   0.000000
   20       25.149556   0.000000
 
 -0.1666667E+00  0.1666667E+00 -0.5503056E-17  0.4629630E-02
    1      -35.027171   1.000000
    2      -35.027171   1.000000
    3      -11.196089   1.000000
    4      -11.196089   1.000000
    5      -10.761535   1.000000
    6      -10.761535   1.000000
    7      -10.562625   1.000000
    8      -10.562625   1.000000
    9        3.507389   0.000000
   10        3.507390   0.000000
   11       14.632581   0.000000
   12       14.632581   0.000000
   13       16.522804   0.000000
   14       16.522804   0.000000
   15       21.499485   0.000000
   16       21.499485   0.000000
   17       22.745999   0.000000
   18       22.745999   0.000000
   19       24.547393   0.000000
   20       24.547393   0.000000
 
  0.0000000E+00  0.3333333E+00  0.1387779E-16  0.4629630E-02
    1      -35.013987   1.000000
    2      -35.013987   1.000000
    3      -11.475933   1.000000
    4      -11.475933   1.000000
    5      -10.828223   1.000000
    6      -10.828223   1.000000
    7      -10.766291   1.000000
    8      -10.766291   1.000000
    9        4.491458   0.000000
   10        4.491459   0.000000
   11       11.735096   0.000000
   12       11.735097   0.000000
   13       19.838868   0.000000
   14       19.838868   0.000000
   15       19.839527   0.000000
   16       19.839527   0.000000
   17       21.937807   0.000000
   18       21.937807   0.000000
   19       24.968346   0.000000
   20       24.970017   0.000000
 
  0.1666667E+00  0.3333333E+00  0.2775558E-16  0.4629630E-02
    1      -35.012301   1.000000
    2      -35.012301   1.000000
    3      -11.344484   1.000000
    4      -11.344484   1.000000
    5      -10.834567   1.000000
    6      -10.834567   1.000000
    7      -10.770883   1.000000
    8      -10.770883   1.000000
    9        4.244506   0.000000
   10        4.244506   0.000000
   11       13.565008   0.000000
   12       13.565008   0.000000
   13       16.836539   0.000000
   14       16.836539   0.000000
   15       19.085883   0.000000
   16       19.085883   0.000000
   17       20.938917   0.000000
   18       20.938917   0.000000
   19       27.070478   0.000000
   20       27.070478   0.000000
 
  0.3333333E+00  0.3333333E+00  0.2775558E-16  0.4629630E-02
    1      -34.979573   1.000000
    2      -34.979573   1.000000
    3      -11.431717   1.000000
    4      -11.431717   1.000000
    5      -10.851348   1.000000
    6      -10.851348   1.000000
    7      -10.792171   1.000000
    8      -10.792171   1.000000
    9        5.373577   0.000000
   10        5.373577   0.000000
   11       13.910108   0.000000
   12       13.910108   0.000000
   13       14.408224   0.000000
   14       14.408224   0.000000
   15       18.545600   0.000000
   16       18.545600   0.000000
   17       18.557568   0.000000
   18       18.557568   0.000000
   19       25.078215   0.000000
   20       25.078215   0.000000
 
  0.5000000E+00  0.3333333E+00  0.5551115E-16  0.4629630E-02
    1      -34.945523   1.000000
    2      -34.945523   1.000000
    3      -11.469670   1.000000
    4      -11.469670   1.000000
    5      -10.969799   1.000000
    6      -10.969799   1.000000
    7      -10.911469   1.000000
    8      -10.911469   1.000000
    9        7.608909   0.000000
   10        7.608909   0.000000
   11       11.481123   0.000000
   12       11.481123   0.000000
   13       12.714502   0.000000
   14       12.714502   0.000000
   15       18.387117   0.000000
   16       18.387117   0.000000
   17       18.873945   0.000000
   18       18.873946   0.000000
   19       26.071684   0.000000
   20       26.071685   0.000000
 
 -0.3333333E+00  0.3333333E+00 -0.3137409E-17  0.4629630E-02
    1      -34.948229   1.000000
    2      -34.948229   1.000000
    3      -11.368853   1.000000
    4      -11.368853   1.000000
    5      -11.264231   1.000000
    6      -11.264231   1.000000
    7      -10.881097   1.000000
    8      -10.881097   1.000000
    9        8.492512   0.000000
   10        8.492512   0.000000
   11       10.969493   0.000000
   12       10.969494   0.000000
   13       11.390897   0.000000
   14       11.390898   0.000000
   15       18.780052   0.000000
   16       18.780052   0.000000
   17       20.375160   0.000000
   18       20.375160   0.000000
   19       28.252277   0.000000
   20       28.252277   0.000000
 
 -0.1666667E+00  0.3333333E+00  0.0000000E+00  0.4629630E-02
    1      -34.979471   1.000000
    2      -34.979471   1.000000
    3      -11.615422   1.000000
    4      -11.615422   1.000000
    5      -10.916447   1.000000
    6      -10.916447   1.000000
    7      -10.708382   1.000000
    8      -10.708382   1.000000
    9        6.063144   0.000000
   10        6.063144   0.000000
   11       10.834011   0.000000
   12       10.834012   0.000000
   13       15.273724   0.000000
   14       15.273724   0.000000
   15       19.664865   0.000000
   16       19.664865   0.000000
   17       23.200962   0.000000
   18       23.200962   0.000000
   19       25.149558   0.000000
   20       25.149558   0.000000
 
  0.0000000E+00  0.5000000E+00  0.2775558E-16  0.4629630E-02
    1      -34.992254   1.000000
    2      -34.992254   1.000000
    3      -11.928398   1.000000
    4      -11.928398   1.000000
    5      -10.915691   1.000000
    6      -10.915691   1.000000
    7      -10.852432   1.000000
    8      -10.852432   1.000000
    9        7.595157   0.000000
   10        7.595157   0.000000
   11        7.795597   0.000000
   12        7.795597   0.000000
   13       19.352114   0.000000
   14       19.352114   0.000000
   15       19.352334   0.000000
   16       19.352334   0.000000
   17       21.646009   0.000000
   18       21.646009   0.000000
   19       25.303519   0.000000
   20       25.304941   0.000000
 
  0.1666667E+00  0.5000000E+00  0.5551115E-16  0.4629630E-02
    1      -34.959993   1.000000
    2      -34.959993   1.000000
    3      -11.661425   1.000000
    4      -11.661425   1.000000
    5      -10.720067   1.000000
    6      -10.720067   1.000000
    7      -10.659838   1.000000
    8      -10.659838   1.000000
    9        7.111111   0.000000
   10        7.111111   0.000000
   11        9.557378   0.000000
   12        9.557378   0.000000
   13       15.638458   0.000000
   14       15.638458   0.000000
   15       18.972206   0.000000
   16       18.972206   0.000000
   17       21.835855   0.000000
   18       21.835855   0.000000
   19       26.973626   0.000000
   20       26.974124   0.000000
 
  0.3333333E+00  0.5000000E+00  0.0000000E+00  0.4629630E-02
    1      -34.945523   1.000000
    2      -34.945523   1.000000
    3      -11.469670   1.000000
    4      -11.469670   1.000000
    5      -10.969799   1.000000
    6      -10.969799   1.000000
    7      -10.911469   1.000000
    8      -10.911469   1.000000
    9        7.608909   0.000000
   10        7.608910   0.000000
   11       11.481122   0.000000
   12       11.481122   0.000000
   13       12.714502   0.000000
   14       12.714503   0.000000
   15       18.387117   0.000000
   16       18.387117   0.000000
   17       18.873946   0.000000
   18       18.873946   0.000000
   19       26.071684   0.000000
   20       26.071684   0.000000
 
  0.5000000E+00  0.5000000E+00  0.0000000E+00  0.4629630E-02
    1      -34.946844   1.000000
    2      -34.946844   1.000000
    3      -11.703747   1.000000
    4      -11.703747   1.000000
    5      -11.047515   1.000000
    6      -11.047515   1.000000
    7      -10.987558   1.000000
    8      -10.987558   1.000000
    9        8.593826   0.000000
   10        8.593826   0.000000
   11        9.911825   0.000000
   12        9.911825   0.000000
   13       13.473977   0.000000
   14       13.473978   0.000000
   15       18.167229   0.000000
   16       18.167229   0.000000
   17       18.182021   0.000000
   18       18.182021   0.000000
   19       23.581860   0.000000
   20       23.581860   0.000000
 
 -0.3333333E+00  0.5000000E+00  0.1387779E-16  0.4629630E-02
    1      -34.945523   1.000000
    2      -34.945523   1.000000
    3      -11.469670   1.000000
    4      -11.469670   1.000000
    5      -10.969799   1.000000
    6      -10.969799   1.000000
    7      -10.911469   1.000000
    8      -10.911469   1.000000
    9        7.608909   0.000000
   10        7.608910   0.000000
   11       11.481122   0.000000
   12       11.481122   0.000000
   13       12.714502   0.000000
   14       12.714503   0.000000
   15       18.387117   0.000000
   16       18.387117   0.000000
   17       18.873946   0.000000
   18       18.873946   0.000000
   19       26.071684   0.000000
   20       26.071684   0.000000
 
 -0.1666667E+00  0.5000000E+00  0.5551115E-16  0.4629630E-02
    1      -34.959993   1.000000
    2      -34.959993   1.000000
    3      -11.661425   1.000000
    4      -11.661425   1.000000
    5      -10.720067   1.000000
    6      -10.720067   1.000000
    7      -10.659838   1.000000
    8      -10.659838   1.000000
    9        7.111111   0.000000
   10        7.111111   0.000000
   11        9.557378   0.000000
   12        9.557378   0.000000
   13       15.638458   0.000000
   14       15.638458   0.000000
   15       18.972206   0.000000
   16       18.972206   0.000000
   17       21.835855   0.000000
   18       21.835855   0.000000
   19       26.973566   0.000000
   20       26.994099   0.000000
 
  0.0000000E+00 -0.3333333E+00 -0.1387779E-16  0.4629630E-02
    1      -35.013987   1.000000
    2      -35.013987   1.000000
    3      -11.475933   1.000000
    4      -11.475933   1.000000
    5      -10.828223   1.000000
    6      -10.828223   1.000000
    7      -10.766291   1.000000
    8      -10.766291   1.000000
    9        4.491458   0.000000
   10        4.491459   0.000000
   11       11.735096   0.000000
   12       11.735097   0.000000
   13       19.838868   0.000000
   14       19.838868   0.000000
   15       19.839527   0.000000
   16       19.839527   0.000000
   17       21.937807   0.000000
   18       21.937807   0.000000
   19       24.968357   0.000000
   20       24.970563   0.000000
 
  0.1666667E+00 -0.3333333E+00 -0.1387779E-16  0.4629630E-02
    1      -34.979471   1.000000
    2      -34.979471   1.000000
    3      -11.615422   1.000000
    4      -11.615422   1.000000
    5      -10.916447   1.000000
    6      -10.916447   1.000000
    7      -10.708382   1.000000
    8      -10.708382   1.000000
    9        6.063144   0.000000
   10        6.063144   0.000000
   11       10.834011   0.000000
   12       10.834012   0.000000
   13       15.273724   0.000000
   14       15.273724   0.000000
   15       19.664865   0.000000
   16       19.664865   0.000000
   17       23.200962   0.000000
   18       23.200962   0.000000
   19       25.149558   0.000000
   20       25.149558   0.000000
 
  0.3333333E+00 -0.3333333E+00  0.3137409E-17  0.4629630E-02
    1      -34.948229   1.000000
    2      -34.948229   1.000000
    3      -11.368853   1.000000
    4      -11.368853   1.000000
    5      -11.264231   1.000000
    6      -11.264231   1.000000
    7      -10.881097   1.000000
    8      -10.881097   1.000000
    9        8.492512   0.000000
   10        8.492512   0.000000
   11       10.969493   0.000000
   12       10.969494   0.000000
   13       11.390897   0.000000
   14       11.390898   0.000000
   15       18.780052   0.000000
   16       18.780052   0.000000
   17       20.375160   0.000000
   18       20.375160   0.000000
   19       28.252277   0.000000
   20       28.252277   0.000000
 
  0.5000000E+00 -0.3333333E+00  0.2081668E-16  0.4629630E-02
    1      -34.945523   1.000000
    2      -34.945523   1.000000
    3      -11.469670   1.000000
    4      -11.469670   1.000000
    5      -10.969799   1.000000
    6      -10.969799   1.000000
    7      -10.911469   1.000000
    8      -10.911469   1.000000
    9        7.608909   0.000000
   10        7.608909   0.000000
   11       11.481123   0.000000
   12       11.481123   0.000000
   13       12.714502   0.000000
   14       12.714502   0.000000
   15       18.387117   0.000000
   16       18.387117   0.000000
   17       18.873945   0.000000
   18       18.873946   0.000000
   19       26.071684   0.000000
   20       26.071685   0.000000
 
 -0.3333333E+00 -0.3333333E+00 -0.2775558E-16  0.4629630E-02
    1      -34.979573   1.000000
    2      -34.979573   1.000000
    3      -11.431717   1.000000
    4      -11.431717   1.000000
    5      -10.851348   1.000000
    6      -10.851348   1.000000
    7      -10.792171   1.000000
    8      -10.792171   1.000000
    9        5.373577   0.000000
   10        5.373577   0.000000
   11       13.910108   0.000000
   12       13.910108   0.000000
   13       14.408224   0.000000
   14       14.408224   0.000000
   15       18.545600   0.000000
   16       18.545600   0.000000
   17       18.557568   0.000000
   18       18.557568   0.000000
   19       25.078215   0.000000
   20       25.078215   0.000000
 
 -0.1666667E+00 -0.3333333E+00 -0.2775558E-16  0.4629630E-02
    1      -35.012301   1.000000
    2      -35.012301   1.000000
    3      -11.344484   1.000000
    4      -11.344484   1.000000
    5      -10.834567   1.000000
    6      -10.834567   1.000000
    7      -10.770883   1.000000
    8      -10.770883   1.000000
    9        4.244506   0.000000
   10        4.244506   0.000000
   11       13.565008   0.000000
   12       13.565008   0.000000
   13       16.836539   0.000000
   14       16.836539   0.000000
   15       19.085883   0.000000
   16       19.085883   0.000000
   17       20.938917   0.000000
   18       20.938917   0.000000
   19       27.070478   0.000000
   20       27.070478   0.000000
 
  0.0000000E+00 -0.1666667E+00 -0.6938894E-17  0.4629630E-02
    1      -35.055684   1.000000
    2      -35.055684   1.000000
    3      -10.888363   1.000000
    4      -10.888362   1.000000
    5      -10.417114   1.000000
    6      -10.417114   1.000000
    7      -10.358786   1.000000
    8      -10.358786   1.000000
    9        2.142847   0.000000
   10        2.142847   0.000000
   11       16.514143   0.000000
   12       16.514143   0.000000
   13       20.721831   0.000000
   14       20.721831   0.000000
   15       20.723235   0.000000
   16       20.723235   0.000000
   17       23.332782   0.000000
   18       23.332782   0.000000
   19       24.889906   0.000000
   20       24.889995   0.000000
 
  0.1666667E+00 -0.1666667E+00  0.2192365E-16  0.4629630E-02
    1      -35.027171   1.000000
    2      -35.027171   1.000000
    3      -11.196089   1.000000
    4      -11.196089   1.000000
    5      -10.761535   1.000000
    6      -10.761535   1.000000
    7      -10.562625   1.000000
    8      -10.562625   1.000000
    9        3.507389   0.000000
   10        3.507390   0.000000
   11       14.632581   0.000000
   12       14.632581   0.000000
   13       16.522804   0.000000
   14       16.522804   0.000000
   15       21.499485   0.000000
   16       21.499485   0.000000
   17       22.745999   0.000000
   18       22.745999   0.000000
   19       24.547393   0.000000
   20       24.547393   0.000000
 
  0.3333333E+00 -0.1666667E+00  0.2775558E-16  0.4629630E-02
    1      -34.979471   1.000000
    2      -34.979471   1.000000
    3      -11.615422   1.000000
    4      -11.615422   1.000000
    5      -10.916447   1.000000
    6      -10.916447   1.000000
    7      -10.708382   1.000000
    8      -10.708382   1.000000
    9        6.063144   0.000000
   10        6.063145   0.000000
   11       10.834012   0.000000
   12       10.834012   0.000000
   13       15.273724   0.000000
   14       15.273724   0.000000
   15       19.664866   0.000000
   16       19.664866   0.000000
   17       23.200962   0.000000
   18       23.200962   0.000000
   19       25.149556   0.000000
   20       25.149556   0.000000
 
  0.5000000E+00 -0.1666667E+00  0.1387779E-16  0.4629630E-02
    1      -34.959993   1.000000
    2      -34.959993   1.000000
    3      -11.661425   1.000000
    4      -11.661425   1.000000
    5      -10.720067   1.000000
    6      -10.720067   1.000000
    7      -10.659838   1.000000
    8      -10.659838   1.000000
    9        7.111111   0.000000
   10        7.111111   0.000000
   11        9.557378   0.000000
   12        9.557379   0.000000
   13       15.638458   0.000000
   14       15.638458   0.000000
   15       18.972207   0.000000
   16       18.972207   0.000000
   17       21.835854   0.000000
   18       21.835855   0.000000
   19       26.973567   0.000000
   20       26.974923   0.000000
 
 -0.3333333E+00 -0.1666667E+00 -0.2775558E-16  0.4629630E-02
    1      -35.012301   1.000000
    2      -35.012301   1.000000
    3      -11.344484   1.000000
    4      -11.344484   1.000000
    5      -10.834567   1.000000
    6      -10.834567   1.000000
    7      -10.770883   1.000000
    8      -10.770883   1.000000
    9        4.244506   0.000000
   10        4.244506   0.000000
   11       13.565009   0.000000
   12       13.565009   0.000000
   13       16.836539   0.000000
   14       16.836539   0.000000
   15       19.085883   0.000000
   16       19.085884   0.000000
   17       20.938916   0.000000
   18       20.938916   0.000000
   19       27.070477   0.000000
   20       27.070477   0.000000
 
 -0.1666667E+00 -0.1666667E+00 -0.1387779E-16  0.4629630E-02
    1      -35.055548   1.000000
    2      -35.055548   1.000000
    3      -10.880586   1.000000
    4      -10.880586   1.000000
    5      -10.651865   1.000000
    6      -10.651865   1.000000
    7      -10.597310   1.000000
    8      -10.597310   1.000000
    9        2.432654   0.000000
   10        2.432654   0.000000
   11       17.182696   0.000000
   12       17.182696   0.000000
   13       19.701775   0.000000
   14       19.701775   0.000000
   15       19.707512   0.000000
   16       19.707512   0.000000
   17       19.877129   0.000000
   18       19.877129   0.000000
   19       27.707603   0.000000
   20       27.707604   0.000000
 
  0.0000000E+00  0.0000000E+00  0.1666667E+00  0.4629630E-02
    1      -35.055684   1.000000
    2      -35.055684   1.000000
    3      -10.888363   1.000000
    4      -10.888362   1.000000
    5      -10.417114   1.000000
    6      -10.417113   1.000000
    7      -10.358786   1.000000
    8      -10.358786   1.000000
    9        2.142847   0.000000
   10        2.142847   0.000000
   11       16.514146   0.000000
   12       16.514146   0.000000
   13       20.721824   0.000000
   14       20.721825   0.000000
   15       20.723228   0.000000
   16       20.723228   0.000000
   17       23.332792   0.000000
   18       23.332792   0.000000
   19       24.889920   0.000000
   20       24.890041   0.000000
 
  0.1666667E+00  0.0000000E+00  0.1666667E+00  0.4629630E-02
    1      -35.055548   1.000000
    2      -35.055548   1.000000
    3      -10.880586   1.000000
    4      -10.880586   1.000000
    5      -10.651865   1.000000
    6      -10.651865   1.000000
    7      -10.597310   1.000000
    8      -10.597310   1.000000
    9        2.432654   0.000000
   10        2.432654   0.000000
   11       17.182694   0.000000
   12       17.182694   0.000000
   13       19.701776   0.000000
   14       19.701776   0.000000
   15       19.707513   0.000000
   16       19.707513   0.000000
   17       19.877129   0.000000
   18       19.877129   0.000000
   19       27.707602   0.000000
   20       27.707602   0.000000
 
  0.3333333E+00 -0.2775558E-16  0.1666667E+00  0.4629630E-02
    1      -35.012301   1.000000
    2      -35.012301   1.000000
    3      -11.344484   1.000000
    4      -11.344484   1.000000
    5      -10.834567   1.000000
    6      -10.834567   1.000000
    7      -10.770883   1.000000
    8      -10.770883   1.000000
    9        4.244506   0.000000
   10        4.244506   0.000000
   11       13.565007   0.000000
   12       13.565007   0.000000
   13       16.836542   0.000000
   14       16.836542   0.000000
   15       19.085876   0.000000
   16       19.085876   0.000000
   17       20.938925   0.000000
   18       20.938925   0.000000
   19       27.070481   0.000000
   20       27.070482   0.000000
 
  0.5000000E+00  0.0000000E+00  0.1666667E+00  0.4629630E-02
    1      -34.959993   1.000000
    2      -34.959993   1.000000
    3      -11.661425   1.000000
    4      -11.661425   1.000000
    5      -10.720067   1.000000
    6      -10.720067   1.000000
    7      -10.659838   1.000000
    8      -10.659838   1.000000
    9        7.111110   0.000000
   10        7.111111   0.000000
   11        9.557378   0.000000
   12        9.557378   0.000000
   13       15.638459   0.000000
   14       15.638459   0.000000
   15       18.972201   0.000000
   16       18.972201   0.000000
   17       21.835864   0.000000
   18       21.835864   0.000000
   19       26.973607   0.000000
   20       26.979540   0.000000
 
 -0.3333333E+00  0.2775558E-16  0.1666667E+00  0.4629630E-02
    1      -34.979471   1.000000
    2      -34.979471   1.000000
    3      -11.615422   1.000000
    4      -11.615422   1.000000
    5      -10.916447   1.000000
    6      -10.916447   1.000000
    7      -10.708382   1.000000
    8      -10.708382   1.000000
    9        6.063144   0.000000
   10        6.063144   0.000000
   11       10.834012   0.000000
   12       10.834012   0.000000
   13       15.273724   0.000000
   14       15.273724   0.000000
   15       19.664860   0.000000
   16       19.664861   0.000000
   17       23.200972   0.000000
   18       23.200973   0.000000
   19       25.149547   0.000000
   20       25.149547   0.000000
 
 -0.1666667E+00  0.0000000E+00  0.1666667E+00  0.4629630E-02
    1      -35.027171   1.000000
    2      -35.027171   1.000000
    3      -11.196089   1.000000