    1    1    1    1
  0.2224118E+02  0.3156634E-09  0.3156634E-09  0.3156634E-09  0.1000000E-15
  1.000000000000000E-004
  CAR 
 Og_FCC                                  
      8    216     18
 
  0.0000000E+00  0.0000000E+00  0.0000000E+00  0.4629630E-02
    1      -35.495242   1.000000
    2      -35.495242   1.000000
    3      -11.202928   1.000000
    4      -11.202928   1.000000
    5      -11.108198   1.000000
    6      -11.108197   1.000000
    7      -11.108196   1.000000
    8      -11.108196   1.000000
    9        0.388819   0.000000
   10        0.388824   0.000000
   11       18.451930   0.000000
   12       18.451935   0.000000
   13       18.451970   0.000000
   14       18.451972   0.000000
   15       18.452136   0.000000
   16       18.452137   0.000000
   17       20.334192   0.000000
   18       20.334200   0.000000
 
  0.1666667E+00 -0.1387779E-16 -0.6938894E-17  0.4629630E-02
    1      -35.501970   1.000000
    2      -35.501969   1.000000
    3      -11.692785   1.000000
    4      -11.692784   1.000000
    5      -11.434883   1.000000
    6      -11.434883   1.000000
    7      -11.378197   1.000000
    8      -11.378197   1.000000
    9        1.148890   0.000000
   10        1.148895   0.000000
   11       14.354241   0.000000
   12       14.354247   0.000000
   13       18.202841   0.000000
   14       18.202842   0.000000
   15       18.204462   0.000000
   16       18.204464   0.000000
   17       20.458135   0.000000
   18       20.458140   0.000000
 
  0.3333333E+00  0.0000000E+00 -0.1387779E-16  0.4629630E-02
    1      -35.437737   1.000000
    2      -35.437737   1.000000
    3      -11.457990   1.000000
    4      -11.457989   1.000000
    5      -11.256708   1.000000
    6      -11.256708   1.000000
    7      -11.202805   1.000000
    8      -11.202805   1.000000
    9        3.329762   0.000000
   10        3.329767   0.000000
   11       10.048676   0.000000
   12       10.048682   0.000000
   13       17.480067   0.000000
   14       17.480068   0.000000
   15       17.480822   0.000000
   16       17.480824   0.000000
   17       19.284799   0.000000
   18       19.284805   0.000000
 
  0.5000000E+00  0.0000000E+00 -0.5551115E-16  0.4629630E-02
    1      -35.440743   1.000000
    2      -35.440742   1.000000
    3      -11.711958   1.000000
    4      -11.711957   1.000000
    5      -11.552077   1.000000
    6      -11.552077   1.000000
    7      -11.499029   1.000000
    8      -11.499028   1.000000
    9        6.288271   0.000000
   10        6.288276   0.000000
   11        6.337861   0.000000
   12        6.337866   0.000000
   13       17.077997   0.000000
   14       17.077999   0.000000
   15       17.078165   0.000000
   16       17.078167   0.000000
   17       19.052138   0.000000
   18       19.052144   0.000000
 
 -0.3333333E+00  0.0000000E+00  0.1387779E-16  0.4629630E-02
    1      -35.437737   1.000000
    2      -35.437737   1.000000
    3      -11.457990   1.000000
    4      -11.457989   1.000000
    5      -11.256708   1.000000
    6      -11.256708   1.000000
    7      -11.202805   1.000000
    8      -11.202805   1.000000
    9        3.329762   0.000000
   10        3.329767   0.000000
   11       10.048676   0.000000
   12       10.048682   0.000000
   13       17.480067   0.000000
   14       17.480068   0.000000
   15       17.480822   0.000000
   16       17.480824   0.000000
   17       19.284799   0.000000
   18       19.284805   0.000000
 
 -0.1666667E+00  0.1387779E-16  0.6938894E-17  0.4629630E-02
    1      -35.501970   1.000000
    2      -35.501969   1.000000
    3      -11.692785   1.000000
    4      -11.692784   1.000000
    5      -11.434883   1.000000
    6      -11.434883   1.000000
    7      -11.378197   1.000000
    8      -11.378197   1.000000
    9        1.148890   0.000000
   10        1.148895   0.000000
   11       14.354241   0.000000
   12       14.354247   0.000000
   13       18.202841   0.000000
   14       18.202842   0.000000
   15       18.204462   0.000000
   16       18.204463   0.000000
   17       20.458135   0.000000
   18       20.458140   0.000000
 
  0.0000000E+00  0.1666667E+00  0.6938894E-17  0.4629630E-02
    1      -35.501970   1.000000
    2      -35.501969   1.000000
    3      -11.692785   1.000000
    4      -11.692784   1.000000
    5      -11.434884   1.000000
    6      -11.434883   1.000000
    7      -11.378198   1.000000
    8      -11.378197   1.000000
    9        1.148891   0.000000
   10        1.148896   0.000000
   11       14.354249   0.000000
   12       14.354254   0.000000
   13       18.202832   0.000000
   14       18.202837   0.000000
   15       18.204454   0.000000
   16       18.204458   0.000000
   17       20.458208   0.000000
   18       20.458213   0.000000
 
  0.1666667E+00  0.1666667E+00 -0.1387779E-16  0.4629630E-02
    1      -35.479447   1.000000
    2      -35.479446   1.000000
    3      -11.507732   1.000000
    4      -11.507732   1.000000
    5      -11.316191   1.000000
    6      -11.316190   1.000000
    7      -11.263632   1.000000
    8      -11.263632   1.000000
    9        1.399315   0.000000
   10        1.399320   0.000000
   11       15.126433   0.000000
   12       15.126439   0.000000
   13       17.107754   0.000000
   14       17.107759   0.000000
   15       17.113290   0.000000
   16       17.113294   0.000000
   17       17.505799   0.000000
   18       17.505804   0.000000
 
  0.3333333E+00  0.1666667E+00 -0.2775558E-16  0.4629630E-02
    1      -35.458979   1.000000
    2      -35.458979   1.000000
    3      -11.702992   1.000000
    4      -11.702991   1.000000
    5      -11.524392   1.000000
    6      -11.524392   1.000000
    7      -11.465165   1.000000
    8      -11.465165   1.000000
    9        3.047423   0.000000
   10        3.047428   0.000000
   11       11.665716   0.000000
   12       11.665721   0.000000
   13       14.791200   0.000000
   14       14.791205   0.000000
   15       16.513151   0.000000
   16       16.513157   0.000000
   17       18.221610   0.000000
   18       18.221615   0.000000
 
  0.5000000E+00  0.1666667E+00  0.0000000E+00  0.4629630E-02
    1      -35.429221   1.000000
    2      -35.429221   1.000000
    3      -11.695207   1.000000
    4      -11.695207   1.000000
    5      -11.496841   1.000000
    6      -11.496841   1.000000
    7      -11.439538   1.000000
    8      -11.439538   1.000000
    9        5.733654   0.000000
   10        5.733660   0.000000
   11        7.917611   0.000000
   12        7.917616   0.000000
   13       13.663245   0.000000
   14       13.663250   0.000000
   15       16.474434   0.000000
   16       16.474440   0.000000
   17       18.798035   0.000000
   18       18.798039   0.000000
 
 -0.3333333E+00  0.1666667E+00  0.6938894E-17  0.4629630E-02
    1      -35.426641   1.000000
    2      -35.426640   1.000000
    3      -11.618729   1.000000
    4      -11.618728   1.000000
    5      -11.383220   1.000000
    6      -11.383219   1.000000
    7      -11.274157   1.000000
    8      -11.274156   1.000000
    9        4.772987   0.000000
   10        4.772992   0.000000
   11        9.150422   0.000000
   12        9.150428   0.000000
   13       13.270491   0.000000
   14       13.270496   0.000000
   15       17.240130   0.000000
   16       17.240135   0.000000
   17       20.048893   0.000000
   18       20.048897   0.000000
 
 -0.1666667E+00  0.1666667E+00  0.7166211E-17  0.4629630E-02
    1      -35.469598   1.000000
    2      -35.469598   1.000000
    3      -11.614753   1.000000
    4      -11.614752   1.000000
    5      -11.513022   1.000000
    6      -11.513022   1.000000
    7      -11.396278   1.000000
    8      -11.396278   1.000000
    9        2.386553   0.000000
   10        2.386558   0.000000
   11       12.629843   0.000000
   12       12.629849   0.000000
   13       14.343236   0.000000
   14       14.343241   0.000000
   15       18.945578   0.000000
   16       18.945583   0.000000
   17       20.097794   0.000000
   18       20.097800   0.000000
 
  0.0000000E+00  0.3333333E+00 -0.1387779E-16  0.4629630E-02
    1      -35.437737   1.000000
    2      -35.437737   1.000000
    3      -11.457990   1.000000
    4      -11.457989   1.000000
    5      -11.256709   1.000000
    6      -11.256708   1.000000
    7      -11.202806   1.000000
    8      -11.202805   1.000000
    9        3.329764   0.000000
   10        3.329769   0.000000
   11       10.048682   0.000000
   12       10.048688   0.000000
   13       17.480054   0.000000
   14       17.480059   0.000000
   15       17.480810   0.000000
   16       17.480814   0.000000
   17       19.284871   0.000000
   18       19.284877   0.000000
 
  0.1666667E+00  0.3333333E+00  0.2775558E-16  0.4629630E-02
    1      -35.458979   1.000000
    2      -35.458978   1.000000
    3      -11.702991   1.000000
    4      -11.702991   1.000000
    5      -11.524393   1.000000
    6      -11.524392   1.000000
    7      -11.465165   1.000000
    8      -11.465165   1.000000
    9        3.047423   0.000000
   10        3.047428   0.000000
   11       11.665728   0.000000
   12       11.665734   0.000000
   13       14.791204   0.000000
   14       14.791209   0.000000
   15       16.513160   0.000000
   16       16.513166   0.000000
   17       18.221570   0.000000
   18       18.221575   0.000000
 
  0.3333333E+00  0.3333333E+00  0.0000000E+00  0.4629630E-02
    1      -35.436373   1.000000
    2      -35.436372   1.000000
    3      -11.675863   1.000000
    4      -11.675862   1.000000
    5      -11.516772   1.000000
    6      -11.516771   1.000000
    7      -11.465931   1.000000
    8      -11.465930   1.000000
    9        4.102177   0.000000
   10        4.102182   0.000000
   11       12.106079   0.000000
   12       12.106084   0.000000
   13       12.653512   0.000000
   14       12.653519   0.000000
   15       15.887689   0.000000
   16       15.887694   0.000000
   17       15.898487   0.000000
   18       15.898492   0.000000
 
  0.5000000E+00  0.3333333E+00  0.0000000E+00  0.4629630E-02
    1      -35.412755   1.000000
    2      -35.412754   1.000000
    3      -11.615640   1.000000
    4      -11.615640   1.000000
    5      -11.527465   1.000000
    6      -11.527465   1.000000
    7      -11.450846   1.000000
    8      -11.450846   1.000000
    9        6.229284   0.000000
   10        6.229289   0.000000
   11        9.747683   0.000000
   12        9.747689   0.000000
   13       10.931782   0.000000
   14       10.931788   0.000000
   15       15.784410   0.000000
   16       15.784416   0.000000
   17       16.220297   0.000000
   18       16.220302   0.000000
 
 -0.3333333E+00  0.3333333E+00  0.1433242E-16  0.4629630E-02
    1      -35.425792   1.000000
    2      -35.425791   1.000000
    3      -11.803148   1.000000
    4      -11.803147   1.000000
    5      -11.704272   1.000000
    6      -11.704272   1.000000
    7      -11.515072   1.000000
    8      -11.515072   1.000000
    9        6.988159   0.000000
   10        6.988164   0.000000
   11        9.101439   0.000000
   12        9.101445   0.000000
   13        9.706357   0.000000
   14        9.706362   0.000000
   15       16.211521   0.000000
   16       16.211527   0.000000
   17       17.511285   0.000000
   18       17.511289   0.000000
 
 -0.1666667E+00  0.3333333E+00 -0.6938894E-17  0.4629630E-02
    1      -35.426641   1.000000
    2      -35.426640   1.000000
    3      -11.618729   1.000000
    4      -11.618728   1.000000
    5      -11.383220   1.000000
    6      -11.383220   1.000000
    7      -11.274157   1.000000
    8      -11.274156   1.000000
    9        4.772987   0.000000
   10        4.772993   0.000000
   11        9.150428   0.000000
   12        9.150433   0.000000
   13       13.270483   0.000000
   14       13.270488   0.000000
   15       17.240144   0.000000
   16       17.240149   0.000000
   17       20.048890   0.000000
   18       20.048894   0.000000
 
  0.0000000E+00  0.5000000E+00 -0.5551115E-16  0.4629630E-02
    1      -35.440743   1.000000
    2      -35.440742   1.000000
    3      -11.711958   1.000000
    4      -11.711957   1.000000
    5      -11.552077   1.000000
    6      -11.552077   1.000000
    7      -11.499029   1.000000
    8      -11.499029   1.000000
    9        6.288233   0.000000
   10        6.288238   0.000000
   11        6.337908   0.000000
   12        6.337913   0.000000
   13       17.077983   0.000000
   14       17.077988   0.000000
   15       17.078150   0.000000
   16       17.078155   0.000000
   17       19.052211   0.000000
   18       19.052217   0.000000
 
  0.1666667E+00  0.5000000E+00 -0.2775558E-16  0.4629630E-02
    1      -35.429221   1.000000
    2      -35.429220   1.000000
    3      -11.695207   1.000000
    4      -11.695207   1.000000
    5      -11.496842   1.000000
    6      -11.496841   1.000000
    7      -11.439538   1.000000
    8      -11.439538   1.000000
    9        5.733650   0.000000
   10        5.733655   0.000000
   11        7.917629   0.000000
   12        7.917634   0.000000
   13       13.663235   0.000000
   14       13.663240   0.000000
   15       16.474447   0.000000
   16       16.474453   0.000000
   17       18.798018   0.000000
   18       18.798022   0.000000
 
  0.3333333E+00  0.5000000E+00 -0.5551115E-16  0.4629630E-02
    1      -35.412755   1.000000
    2      -35.412754   1.000000
    3      -11.615640   1.000000
    4      -11.615640   1.000000
    5      -11.527465   1.000000
    6      -11.527465   1.000000
    7      -11.450846   1.000000
    8      -11.450846   1.000000
    9        6.229277   0.000000
   10        6.229282   0.000000
   11        9.747722   0.000000
   12        9.747728   0.000000
   13       10.931756   0.000000
   14       10.931762   0.000000
   15       15.784412   0.000000
   16       15.784418   0.000000
   17       16.220284   0.000000
   18       16.220288   0.000000
 
  0.5000000E+00  0.5000000E+00 -0.1110223E-15  0.4629630E-02
    1      -35.397237   1.000000
    2      -35.397236   1.000000
    3      -11.680131   1.000000
    4      -11.680130   1.000000
    5      -11.308586   1.000000
    6      -11.308585   1.000000
    7      -11.252529   1.000000
    8      -11.252528   1.000000
    9        7.321389   0.000000
   10        7.321393   0.000000
   11        8.230843   0.000000
   12        8.230849   0.000000
   13       11.827945   0.000000
   14       11.827951   0.000000
   15       15.614416   0.000000
   16       15.614421   0.000000
   17       15.626979   0.000000
   18       15.626984   0.000000
 
 -0.3333333E+00  0.5000000E+00 -0.1387779E-16  0.4629630E-02
    1      -35.412755   1.000000
    2      -35.412754   1.000000
    3      -11.615640   1.000000
    4      -11.615640   1.000000
    5      -11.527465   1.000000
    6      -11.527465   1.000000
    7      -11.450846   1.000000
    8      -11.450846   1.000000
    9        6.229277   0.000000
   10        6.229282   0.000000
   11        9.747722   0.000000
   12        9.747728   0.000000
   13       10.931756   0.000000
   14       10.931762   0.000000
   15       15.784412   0.000000
   16       15.784418   0.000000
   17       16.220284   0.000000
   18       16.220288   0.000000
 
 -0.1666667E+00  0.5000000E+00  0.1387779E-16  0.4629630E-02
    1      -35.429221   1.000000
    2      -35.429220   1.000000
    3      -11.695207   1.000000
    4      -11.695207   1.000000
    5      -11.496842   1.000000
    6      -11.496841   1.000000
    7      -11.439538   1.000000
    8      -11.439538   1.000000
    9        5.733650   0.000000
   10        5.733655   0.000000
   11        7.917629   0.000000
   12        7.917634   0.000000
   13       13.663235   0.000000
   14       13.663240   0.000000
   15       16.474447   0.000000
   16       16.474453   0.000000
   17       18.798018   0.000000
   18       18.798022   0.000000
 
  0.0000000E+00 -0.3333333E+00  0.1387779E-16  0.4629630E-02
    1      -35.437737   1.000000
    2      -35.437737   1.000000
    3      -11.457990   1.000000
    4      -11.457989   1.000000
    5      -11.256709   1.000000
    6      -11.256708   1.000000
    7      -11.202806   1.000000
    8      -11.202805   1.000000
    9        3.329764   0.000000
   10        3.329769   0.000000
   11       10.048682   0.000000
   12       10.048688   0.000000
   13       17.480054   0.000000
   14       17.480059   0.000000
   15       17.480810   0.000000
   16       17.480814   0.000000
   17       19.284871   0.000000
   18       19.284877   0.000000
 
  0.1666667E+00 -0.3333333E+00  0.6938894E-17  0.4629630E-02
    1      -35.426641   1.000000
    2      -35.426640   1.000000
    3      -11.618729   1.000000
    4      -11.618728   1.000000
    5      -11.383220   1.000000
    6      -11.383220   1.000000
    7      -11.274157   1.000000
    8      -11.274156   1.000000
    9        4.772987   0.000000
   10        4.772993   0.000000
   11        9.150428   0.000000
   12        9.150433   0.000000
   13       13.270483   0.000000
   14       13.270488   0.000000
   15       17.240144   0.000000
   16       17.240149   0.000000
   17       20.048890   0.000000
   18       20.048894   0.000000
 
  0.3333333E+00 -0.3333333E+00 -0.1433242E-16  0.4629630E-02
    1      -35.425792   1.000000
    2      -35.425791   1.000000
    3      -11.803148   1.000000
    4      -11.803147   1.000000
    5      -11.704272   1.000000
    6      -11.704272   1.000000
    7      -11.515072   1.000000
    8      -11.515072   1.000000
    9        6.988159   0.000000
   10        6.988164   0.000000
   11        9.101439   0.000000
   12        9.101445   0.000000
   13        9.706357   0.000000
   14        9.706362   0.000000
   15       16.211521   0.000000
   16       16.211527   0.000000
   17       17.511285   0.000000
   18       17.511289   0.000000
 
  0.5000000E+00 -0.3333333E+00 -0.1387779E-16  0.4629630E-02
    1      -35.412755   1.000000
    2      -35.412754   1.000000
    3      -11.615640   1.000000
    4      -11.615640   1.000000
    5      -11.527465   1.000000
    6      -11.527465   1.000000
    7      -11.450846   1.000000
    8      -11.450846   1.000000
    9        6.229284   0.000000
   10        6.229289   0.000000
   11        9.747683   0.000000
   12        9.747689   0.000000
   13       10.931782   0.000000
   14       10.931788   0.000000
   15       15.784410   0.000000
   16       15.784416   0.000000
   17       16.220297   0.000000
   18       16.220302   0.000000
 
 -0.3333333E+00 -0.3333333E+00  0.0000000E+00  0.4629630E-02
    1      -35.436373   1.000000
    2      -35.436372   1.000000
    3      -11.675863   1.000000
    4      -11.675862   1.000000
    5      -11.516772   1.000000
    6      -11.516771   1.000000
    7      -11.465931   1.000000
    8      -11.465930   1.000000
    9        4.102177   0.000000
   10        4.102182   0.000000
   11       12.106079   0.000000
   12       12.106084   0.000000
   13       12.653512   0.000000
   14       12.653519   0.000000
   15       15.887689   0.000000
   16       15.887694   0.000000
   17       15.898487   0.000000
   18       15.898492   0.000000
 
 -0.1666667E+00 -0.3333333E+00 -0.2775558E-16  0.4629630E-02
    1      -35.458979   1.000000
    2      -35.458978   1.000000
    3      -11.702991   1.000000
    4      -11.702991   1.000000
    5      -11.524393   1.000000
    6      -11.524392   1.000000
    7      -11.465165   1.000000
    8      -11.465165   1.000000
    9        3.047423   0.000000
   10        3.047428   0.000000
   11       11.665728   0.000000
   12       11.665734   0.000000
   13       14.791204   0.000000
   14       14.791209   0.000000
   15       16.513160   0.000000
   16       16.513166   0.000000
   17       18.221570   0.000000
   18       18.221575   0.000000
 
  0.0000000E+00 -0.1666667E+00 -0.6938894E-17  0.4629630E-02
    1      -35.501970   1.000000
    2      -35.501969   1.000000
    3      -11.692785   1.000000
    4      -11.692784   1.000000
    5      -11.434884   1.000000
    6      -11.434883   1.000000
    7      -11.378198   1.000000
    8      -11.378197   1.000000
    9        1.148891   0.000000
   10        1.148896   0.000000
   11       14.354249   0.000000
   12       14.354254   0.000000
   13       18.202832   0.000000
   14       18.202837   0.000000
   15       18.204454   0.000000
   16       18.204458   0.000000
   17       20.458208   0.000000
   18       20.458213   0.000000
 
  0.1666667E+00 -0.1666667E+00 -0.7166211E-17  0.4629630E-02
    1      -35.469598   1.000000
    2      -35.469598   1.000000
    3      -11.614753   1.000000
    4      -11.614752   1.000000
    5      -11.513022   1.000000
    6      -11.513022   1.000000
    7      -11.396278   1.000000
    8      -11.396278   1.000000
    9        2.386553   0.000000
   10        2.386558   0.000000
   11       12.629843   0.000000
   12       12.629849   0.000000
   13       14.343236   0.000000
   14       14.343241   0.000000
   15       18.945578   0.000000
   16       18.945583   0.000000
   17       20.097794   0.000000
   18       20.097800   0.000000
 
  0.3333333E+00 -0.1666667E+00 -0.6938894E-17  0.4629630E-02
    1      -35.426641   1.000000
    2      -35.426640   1.000000
    3      -11.618729   1.000000
    4      -11.618728   1.000000
    5      -11.383220   1.000000
    6      -11.383219   1.000000
    7      -11.274157   1.000000
    8      -11.274156   1.000000
    9        4.772987   0.000000
   10        4.772992   0.000000
   11        9.150422   0.000000
   12        9.150428   0.000000
   13       13.270491   0.000000
   14       13.270496   0.000000
   15       17.240130   0.000000
   16       17.240135   0.000000
   17       20.048893   0.000000
   18       20.048897   0.000000
 
  0.5000000E+00 -0.1666667E+00  0.0000000E+00  0.4629630E-02
    1      -35.429221   1.000000
    2      -35.429221   1.000000
    3      -11.695207   1.000000
    4      -11.695207   1.000000
    5      -11.496841   1.000000
    6      -11.496841   1.000000
    7      -11.439538   1.000000
    8      -11.439538   1.000000
    9        5.733654   0.000000
   10        5.733660   0.000000
   11        7.917611   0.000000
   12        7.917616   0.000000
   13       13.663245   0.000000
   14       13.663250   0.000000
   15       16.474434   0.000000
   16       16.474440   0.000000
   17       18.798035   0.000000
   18       18.798039   0.000000
 
 -0.3333333E+00 -0.1666667E+00  0.2775558E-16  0.4629630E-02
    1      -35.458979   1.000000
    2      -35.458979   1.000000
    3      -11.702992   1.000000
    4      -11.702991   1.000000
    5      -11.524392   1.000000
    6      -11.524392   1.000000
    7      -11.465165   1.000000
    8      -11.465165   1.000000
    9        3.047423   0.000000
   10        3.047428   0.000000
   11       11.665716   0.000000
   12       11.665721   0.000000
   13       14.791200   0.000000
   14       14.791205   0.000000
   15       16.513151   0.000000
   16       16.513157   0.000000
   17       18.221610   0.000000
   18       18.221615   0.000000
 
 -0.1666667E+00 -0.1666667E+00  0.1387779E-16  0.4629630E-02
    1      -35.479447   1.000000
    2      -35.479446   1.000000
    3      -11.507732   1.000000
    4      -11.507732   1.000000
    5      -11.316191   1.000000
    6      -11.316190   1.000000
    7      -11.263632   1.000000
    8      -11.263632   1.000000
    9        1.399315   0.000000
   10        1.399320   0.000000
   11       15.126433   0.000000
   12       15.126439   0.000000
   13       17.107754   0.000000
   14       17.107759   0.000000
   15       17.113290   0.000000
   16       17.113294   0.000000
   17       17.505799   0.000000
   18       17.505804   0.000000
 
  0.0000000E+00  0.0000000E+00  0.1666667E+00  0.4629630E-02
    1      -35.501970   1.000000
    2      -35.501969   1.000000
    3      -11.692784   1.000000
    4      -11.692783   1.000000
    5      -11.434884   1.000000
    6      -11.434884   1.000000
    7      -11.378198   1.000000
    8      -11.378198   1.000000
    9        1.148890   0.000000
   10        1.148895   0.000000
   11       14.354256   0.000000
   12       14.354262   0.000000
   13       18.202818   0.000000
   14       18.202823   0.000000
   15       18.204439   0.000000
   16       18.204444   0.000000
   17       20.458204   0.000000
   18       20.458209   0.000000
 
  0.1666667E+00 -0.1387779E-16  0.1666667E+00  0.4629630E-02
    1      -35.479447   1.000000
    2      -35.479447   1.000000
    3      -11.507732   1.000000
    4      -11.507731   1.000000
    5      -11.316191   1.000000
    6      -11.316191   1.000000
    7      -11.263632   1.000000
    8      -11.263632   1.000000
    9        1.399315   0.000000
   10        1.399320   0.000000
   11       15.126458   0.000000
   12       15.126464   0.000000
   13       17.107742   0.000000
   14       17.107745   0.000000
   15       17.113277   0.000000
   16       17.113280   0.000000
   17       17.505795   0.000000
   18       17.505799   0.000000
 
  0.3333333E+00  0.0000000E+00  0.1666667E+00  0.4629630E-02
    1      -35.458979   1.000000
    2      -35.458979   1.000000
    3      -11.702993   1.000000
    4      -11.702992   1.000000
    5      -11.524392   1.000000
    6      -11.524391   1.000000
    7      -11.465165   1.000000
    8      -11.465165   1.000000
    9        3.047425   0.000000
   10        3.047430   0.000000
   11       11.665722   0.000000
   12       11.665728   0.000000
   13       14.791192   0.000000
   14       14.791197   0.000000
   15       16.513159   0.000000
   16       16.513165   0.000000
   17       18.221598   0.000000
   18       18.221603   0.000000
 
  0.5000000E+00  0.0000000E+00  0.1666667E+00  0.4629630E-02
    1      -35.429221   1.000000
    2      -35.429220   1.000000
    3      -11.695207   1.000000
    4      -11.695206   1.000000
    5      -11.496841   1.000000
    6      -11.496840   1.000000
    7      -11.439538   1.000000
    8      -11.439538   1.000000
    9        5.733655   0.000000
   10        5.733660   0.000000
   11        7.917609   0.000000
   12        7.917614   0.000000
   13       13.663239   0.000000
   14       13.663244   0.000000
   15       16.474458   0.000000
   16       16.474464   0.000000
   17       18.798012   0.000000
   18       18.798016   0.000000
 
 -0.3333333E+00  0.0000000E+00  0.1666667E+00  0.4629630E-02
    1      -35.426641   1.000000
    2      -35.426640   1.000000
    3      -11.618728   1.000000
    4      -11.618728   1.000000
    5      -11.383218   1.000000
    6      -11.383217   1.000000
    7      -11.274158   1.000000
    8      -11.274158   1.000000
    9        4.772984   0.000000
   10        4.772989   0.000000
   11        9.150419   0.000000
   12        9.150425   0.000000
   13       13.270494   0.000000
   14       13.270499   0.000000
   15       17.240165   0.000000
   16       17.240170   0.000000
   17       20.048864   0.000000
   18       20.048867   0.000000
 
 -0.1666667E+00  0.1387779E-16  0.1666667E+00  0.4629630E-02
    1      -35.469598   1.000000
    2      -35.469598   1.000000
    3      -11.614750   1.000000
    4      -11.614750   1.000000
    5      -11.513022   1.000000
    6      -11.513021   1.000000
    7      -11.396279   1.000000
    8      -11.396279   1.000000
    9        2.386548   0.000000
   10        2.386553   0.000000
   11       12.629831   0.000000
   12       12.629837   0.000000
   13       14.343260   0.000000
   14       14.343265   0.000000
   15       18.945620   0.000000
   16       18.945626   0.000000
   17       20.097744   0.000000
   18       20.097750   0.000000
 
  0.0000000E+00  0.1666667E+00  0.1666667E+00  0.4629630E-02
    1      -35.479447   1.000000
    2      -35.479446   1.000000
    3      -11.507733   1.000000
    4      -11.507732   1.000000
    5      -11.316190   1.000000
    6      -11.316190   1.000000
    7      -11.263632   1.000000
    8      -11.263631   1.000000
    9        1.399315   0.000000
   10        1.399320   0.000000
   11       15.126434   0.000000
   12       15.126440   0.000000
   13       17.107756   0.000000
   14       17.107756   0.000000
   15       17.113292   0.000000
   16       17.113292   0.000000
   17       17.505794   0.000000
   18       17.505799   0.000000
 
  0.1666667E+00  0.1666667E+00  0.1666667E+00  0.4629630E-02
    1      -35.501970   1.000000
    2      -35.501969   1.000000
    3      -11.692786   1.000000
    4      -11.692785   1.000000
    5      -11.434883   1.000000
    6      -11.434883   1.000000
    7      -11.378197   1.000000
    8      -11.378197   1.000000
    9        1.148891   0.000000
   10        1.148896   0.000000
   11       14.354249   0.000000
   12       14.354255   0.000000
   13       18.202849   0.000000
   14       18.202850   0.000000
   15       18.204471   0.000000
   16       18.204471   0.000000
   17       20.458146   0.000000
   18       20.458152   0.000000
 
  0.3333333E+00  0.1666667E+00  0.1666667E+00  0.4629630E-02
    1      -35.469598   1.000000
    2      -35.469598   1.000000
    3      -11.614753   1.000000
    4      -11.614752   1.000000
    5      -11.513023   1.000000
    6      -11.513023   1.000000
    7      -11.396278   1.000000
    8      -11.396277   1.000000
    9        2.386553   0.000000
   10        2.386558   0.000000
   11       12.629844   0.000000
   12       12.629850   0.000000
   13       14.343234   0.000000
   14       14.343239   0.000000
   15       18.945629   0.000000
   16       18.945634   0.000000
   17       20.097794   0.000000
   18       20.097800   0.000000
 
  0.5000000E+00  0.1666667E+00  0.1666667E+00  0.4629630E-02
    1      -35.426641   1.000000
    2      -35.426640   1.000000
    3      -11.618729   1.000000
    4      -11.618728   1.000000
    5      -11.383221   1.000000