 running on   32 total cores
 distrk:  each k-point on    8 cores,    4 groups
 distr:  one band on    8 cores,    1 groups
 using from now: INCAR     
 vasp.5.4.4.18Apr17-6-g9f103f2a35 (build Jul 09 2018 16:43:14) complex          
  
 POSCAR found type information on POSCAR  Ne
 POSCAR found :  1 types and       1 ions
 scaLAPACK will be used

 ----------------------------------------------------------------------------- 
|                                                                             |
|           W    W    AA    RRRRR   N    N  II  N    N   GGGG   !!!           |
|           W    W   A  A   R    R  NN   N  II  NN   N  G    G  !!!           |
|           W    W  A    A  R    R  N N  N  II  N N  N  G       !!!           |
|           W WW W  AAAAAA  RRRRR   N  N N  II  N  N N  G  GGG   !            |
|           WW  WW  A    A  R   R   N   NN  II  N   NN  G    G                |
|           W    W  A    A  R    R  N    N  II  N    N   GGGG   !!!           |
|                                                                             |
|      You have enabled k-point parallelism (KPAR>1).                         |
|      This developmental code was originally  written by Paul Kent at ORNL,  |
|      and carefully double checked in Vienna.                                |
|      GW as well as linear response parallelism added by Martijn Marsman     |
|      and Georg Kresse.                                                      |
|      Carefully verify results versus KPAR=1.                                |
|      Report problems to Paul Kent and Vienna.                               |
|                                                                             |
 ----------------------------------------------------------------------------- 

 LDA part: xc-table for Pade appr. of Perdew
 found WAVECAR, reading the header
  number of bands has changed, file:    20 present:    18
  trying to continue reading WAVECAR, but it might fail
 WAVECAR: different cutoff or change in lattice found
 POSCAR, INCAR and KPOINTS ok, starting setup
 FFT: planning ...
 reading WAVECAR
 the WAVECAR file was read successfully
 initial charge from wavefunction
 entering main loop
       N       E                     dE             d eps       ncg     rms          rms(c)
DAV:   1    -0.711859453381E+01   -0.71186E+01   -0.20281E+02  8160   0.256E+02
DAV:   2    -0.732213570037E+01   -0.20354E+00   -0.20335E+00  7824   0.183E+01
DAV:   3    -0.732222021644E+01   -0.84516E-04   -0.84516E-04  8288   0.393E-01
DAV:   4    -0.732222031520E+01   -0.98759E-07   -0.98744E-07  8478   0.130E-02
DAV:   5    -0.732222031538E+01   -0.17928E-09   -0.18824E-09  6524   0.521E-04    0.202E+01
DAV:   6     0.242830665258E+01    0.97505E+01   -0.16105E+01  9698   0.575E+01    0.620E+00
DAV:   7     0.303632094167E+01    0.60801E+00   -0.27181E+00  9010   0.234E+01    0.129E+00
DAV:   8     0.304285453555E+01    0.65336E-02   -0.90281E-02  7946   0.456E+00    0.826E-01
DAV:   9     0.304702500996E+01    0.41705E-02   -0.99940E-03  7942   0.149E+00    0.882E-02
DAV:  10     0.304710045349E+01    0.75444E-04   -0.20382E-04  7998   0.186E-01    0.207E-02
DAV:  11     0.304710884974E+01    0.83962E-05   -0.32953E-05  9040   0.831E-02    0.448E-03
DAV:  12     0.304710893079E+01    0.81047E-07   -0.34250E-07  7852   0.788E-03    0.544E-04
DAV:  13     0.304710890383E+01   -0.26952E-07   -0.90753E-09  7864   0.143E-03    0.323E-04
DAV:  14     0.304710886548E+01   -0.38352E-07   -0.15728E-09  6064   0.667E-04    0.134E-04
DAV:  15     0.304710885337E+01   -0.12115E-07   -0.90691E-10  3948   0.386E-04    0.624E-06
DAV:  16     0.304710885437E+01    0.10025E-08   -0.52075E-11  3888   0.979E-05
   1 F= 0.30281035E+01 E0= 0.30281035E+01  d E =-.231023E-42  mag=     0.0000     0.0000    -0.0000
 writing wavefunctions
 optical routines
 imaginary and real dielectric function
 recalculating local potential from charge density
 direction            1
 direction            2
 direction            3
