<?xml version="1.0" encoding="ISO-8859-1"?>
<modeling>
 <generator>
  <i name="program" type="string">vasp </i>
  <i name="version" type="string">5.4.4.18Apr17-6-g9f103f2a35  </i>
  <i name="subversion" type="string">(build Jul 09 2018 16:43:14) complex            parallel </i>
  <i name="platform" type="string">LinuxIFC </i>
  <i name="date" type="string">2018 12 04 </i>
  <i name="time" type="string">02:01:13 </i>
 </generator>
 <incar>
  <i type="string" name="SYSTEM">   Og_FCC</i>
  <i type="string" name="PREC">accurate</i>
  <i type="string" name="ALGO">   Normal</i>
  <i type="logical" name="ADDGRID"> T  </i>
  <i type="logical" name="LSORBIT"> T  </i>
  <i type="int" name="ISPIN">     1</i>
  <i type="int" name="MAXMIX">    50</i>
  <i type="int" name="NELM">    50</i>
  <i type="int" name="NELMDL">    -5</i>
  <i type="int" name="NELMIN">     2</i>
  <i type="int" name="IBRION">    -1</i>
  <i type="int" name="NFREE">     5</i>
  <i name="EDIFF">      0.00000001</i>
  <i name="EDIFFG">      0.00001000</i>
  <i type="int" name="NSW">     1</i>
  <i type="int" name="ISIF">     3</i>
  <i type="int" name="ISYM">     0</i>
  <i name="SYMPREC">      0.00000010</i>
  <i name="ENCUT">    300.00000000</i>
  <i name="POTIM">      0.10000000</i>
  <i type="logical" name="LREAL"> F  </i>
  <i type="int" name="ISMEAR">     0</i>
  <i name="SIGMA">      0.00100000</i>
  <i type="int" name="NWRITE">     2</i>
  <i type="logical" name="LWAVE"> T  </i>
  <i type="logical" name="LCHARG"> F  </i>
  <i type="logical" name="LVTOT"> F  </i>
  <i type="logical" name="LOPTICS"> T  </i>
  <i type="logical" name="GGA_COMPAT"> F  </i>
  <v type="int" name="KPOINT_BSE">    -1     0     0     0</v>
  <i type="int" name="NELM">    50</i>
  <i type="string" name="GGA"> PE</i>
 </incar>
 <structure name="primitive_cell" >
  <crystal>
   <varray name="basis" >
    <v>       3.15663441       0.00000000       0.00000000 </v>
    <v>       1.57831721       2.73372559       0.00000000 </v>
    <v>       1.57831721       0.91124186       2.57738121 </v>
   </varray>
   <i name="volume">     22.24118194 </i>
   <varray name="rec_basis" >
    <v>       0.31679310      -0.18290058      -0.12933024 </v>
    <v>       0.00000000       0.36580116      -0.12933024 </v>
    <v>       0.00000000       0.00000000       0.38799072 </v>
   </varray>
  </crystal>
  <varray name="positions" >
   <v>       0.00000000       0.00000000       0.00000000 </v>
  </varray>
 </structure>
 <varray name="primitive_index" >
  <v type="int" >        1 </v>
 </varray>
 <kpoints>
  <generation param="Gamma">
   <v type="int" name="divisions">       6        6        6 </v>
   <v name="usershift">      0.00000000       0.00000000       0.00000000 </v>
   <v name="genvec1">      0.16666667       0.00000000       0.00000000 </v>
   <v name="genvec2">      0.00000000       0.16666667      -0.00000000 </v>
   <v name="genvec3">      0.00000000       0.00000000       0.16666667 </v>
   <v name="shift">      0.00000000       0.00000000       0.00000000 </v>
  </generation>
  <varray name="kpointlist" >
   <v>       0.00000000       0.00000000       0.00000000 </v>
   <v>       0.16666667      -0.00000000      -0.00000000 </v>
   <v>       0.33333333       0.00000000      -0.00000000 </v>
   <v>       0.50000000       0.00000000      -0.00000000 </v>
   <v>      -0.33333333       0.00000000       0.00000000 </v>
   <v>      -0.16666667       0.00000000       0.00000000 </v>
   <v>       0.00000000       0.16666667       0.00000000 </v>
   <v>       0.16666667       0.16666667      -0.00000000 </v>
   <v>       0.33333333       0.16666667      -0.00000000 </v>
   <v>       0.50000000       0.16666667       0.00000000 </v>
   <v>      -0.33333333       0.16666667       0.00000000 </v>
   <v>      -0.16666667       0.16666667       0.00000000 </v>
   <v>       0.00000000       0.33333333      -0.00000000 </v>
   <v>       0.16666667       0.33333333       0.00000000 </v>
   <v>       0.33333333       0.33333333       0.00000000 </v>
   <v>       0.50000000       0.33333333       0.00000000 </v>
   <v>      -0.33333333       0.33333333       0.00000000 </v>
   <v>      -0.16666667       0.33333333      -0.00000000 </v>
   <v>       0.00000000       0.50000000      -0.00000000 </v>
   <v>       0.16666667       0.50000000      -0.00000000 </v>
   <v>       0.33333333       0.50000000      -0.00000000 </v>
   <v>       0.50000000       0.50000000      -0.00000000 </v>
   <v>      -0.33333333       0.50000000      -0.00000000 </v>
   <v>      -0.16666667       0.50000000       0.00000000 </v>
   <v>       0.00000000      -0.33333333       0.00000000 </v>
   <v>       0.16666667      -0.33333333       0.00000000 </v>
   <v>       0.33333333      -0.33333333      -0.00000000 </v>
   <v>       0.50000000      -0.33333333      -0.00000000 </v>
   <v>      -0.33333333      -0.33333333       0.00000000 </v>
   <v>      -0.16666667      -0.33333333      -0.00000000 </v>
   <v>       0.00000000      -0.16666667      -0.00000000 </v>
   <v>       0.16666667      -0.16666667      -0.00000000 </v>
   <v>       0.33333333      -0.16666667      -0.00000000 </v>
   <v>       0.50000000      -0.16666667       0.00000000 </v>
   <v>      -0.33333333      -0.16666667       0.00000000 </v>
   <v>      -0.16666667      -0.16666667       0.00000000 </v>
   <v>       0.00000000       0.00000000       0.16666667 </v>
   <v>       0.16666667      -0.00000000       0.16666667 </v>
   <v>       0.33333333       0.00000000       0.16666667 </v>
   <v>       0.50000000       0.00000000       0.16666667 </v>
   <v>      -0.33333333       0.00000000       0.16666667 </v>
   <v>      -0.16666667       0.00000000       0.16666667 </v>
   <v>       0.00000000       0.16666667       0.16666667 </v>
   <v>       0.16666667       0.16666667       0.16666667 </v>
   <v>       0.33333333       0.16666667       0.16666667 </v>
   <v>       0.50000000       0.16666667       0.16666667 </v>
   <v>      -0.33333333       0.16666667       0.16666667 </v>
   <v>      -0.16666667       0.16666667       0.16666667 </v>
   <v>       0.00000000       0.33333333       0.16666667 </v>
   <v>       0.16666667       0.33333333       0.16666667 </v>
   <v>       0.33333333       0.33333333       0.16666667 </v>
   <v>       0.50000000       0.33333333       0.16666667 </v>
   <v>      -0.33333333       0.33333333       0.16666667 </v>
   <v>      -0.16666667       0.33333333       0.16666667 </v>
   <v>       0.00000000       0.50000000       0.16666667 </v>
   <v>       0.16666667       0.50000000       0.16666667 </v>
   <v>       0.33333333       0.50000000       0.16666667 </v>
   <v>       0.50000000       0.50000000       0.16666667 </v>
   <v>      -0.33333333       0.50000000       0.16666667 </v>
   <v>      -0.16666667       0.50000000       0.16666667 </v>
   <v>       0.00000000      -0.33333333       0.16666667 </v>
   <v>       0.16666667      -0.33333333       0.16666667 </v>
   <v>       0.33333333      -0.33333333       0.16666667 </v>
   <v>       0.50000000      -0.33333333       0.16666667 </v>
   <v>      -0.33333333      -0.33333333       0.16666667 </v>
   <v>      -0.16666667      -0.33333333       0.16666667 </v>
   <v>       0.00000000      -0.16666667       0.16666667 </v>
   <v>       0.16666667      -0.16666667       0.16666667 </v>
   <v>       0.33333333      -0.16666667       0.16666667 </v>
   <v>       0.50000000      -0.16666667       0.16666667 </v>
   <v>      -0.33333333      -0.16666667       0.16666667 </v>
   <v>      -0.16666667      -0.16666667       0.16666667 </v>
   <v>       0.00000000       0.00000000       0.33333333 </v>
   <v>       0.16666667      -0.00000000       0.33333333 </v>
   <v>       0.33333333       0.00000000       0.33333333 </v>
   <v>       0.50000000       0.00000000       0.33333333 </v>
   <v>      -0.33333333       0.00000000       0.33333333 </v>
   <v>      -0.16666667       0.00000000       0.33333333 </v>
   <v>       0.00000000       0.16666667       0.33333333 </v>
   <v>       0.16666667       0.16666667       0.33333333 </v>
   <v>       0.33333333       0.16666667       0.33333333 </v>
   <v>       0.50000000       0.16666667       0.33333333 </v>
   <v>      -0.33333333       0.16666667       0.33333333 </v>
   <v>      -0.16666667       0.16666667       0.33333333 </v>
   <v>       0.00000000       0.33333333       0.33333333 </v>
   <v>       0.16666667       0.33333333       0.33333333 </v>
   <v>       0.33333333       0.33333333       0.33333333 </v>
   <v>       0.50000000       0.33333333       0.33333333 </v>
   <v>      -0.33333333       0.33333333       0.33333333 </v>
   <v>      -0.16666667       0.33333333       0.33333333 </v>
   <v>       0.00000000       0.50000000       0.33333333 </v>
   <v>       0.16666667       0.50000000       0.33333333 </v>
   <v>       0.33333333       0.50000000       0.33333333 </v>
   <v>       0.50000000       0.50000000       0.33333333 </v>
   <v>      -0.33333333       0.50000000       0.33333333 </v>
   <v>      -0.16666667       0.50000000       0.33333333 </v>
   <v>       0.00000000      -0.33333333       0.33333333 </v>
   <v>       0.16666667      -0.33333333       0.33333333 </v>
   <v>       0.33333333      -0.33333333       0.33333333 </v>
   <v>       0.50000000      -0.33333333       0.33333333 </v>
   <v>      -0.33333333      -0.33333333       0.33333333 </v>
   <v>      -0.16666667      -0.33333333       0.33333333 </v>
   <v>       0.00000000      -0.16666667       0.33333333 </v>
   <v>       0.16666667      -0.16666667       0.33333333 </v>
   <v>       0.33333333      -0.16666667       0.33333333 </v>
   <v>       0.50000000      -0.16666667       0.33333333 </v>
   <v>      -0.33333333      -0.16666667       0.33333333 </v>
   <v>      -0.16666667      -0.16666667       0.33333333 </v>
   <v>       0.00000000       0.00000000       0.50000000 </v>
   <v>       0.16666667      -0.00000000       0.50000000 </v>
   <v>       0.33333333       0.00000000       0.50000000 </v>
   <v>       0.50000000       0.00000000       0.50000000 </v>
   <v>      -0.33333333       0.00000000       0.50000000 </v>
   <v>      -0.16666667       0.00000000       0.50000000 </v>
   <v>       0.00000000       0.16666667       0.50000000 </v>
   <v>       0.16666667       0.16666667       0.50000000 </v>
   <v>       0.33333333       0.16666667       0.50000000 </v>
   <v>       0.50000000       0.16666667       0.50000000 </v>
   <v>      -0.33333333       0.16666667       0.50000000 </v>
   <v>      -0.16666667       0.16666667       0.50000000 </v>
   <v>       0.00000000       0.33333333       0.50000000 </v>
   <v>       0.16666667       0.33333333       0.50000000 </v>
   <v>       0.33333333       0.33333333       0.50000000 </v>
   <v>       0.50000000       0.33333333       0.50000000 </v>
   <v>      -0.33333333       0.33333333       0.50000000 </v>
   <v>      -0.16666667       0.33333333       0.50000000 </v>
   <v>       0.00000000       0.50000000       0.50000000 </v>
   <v>       0.16666667       0.50000000       0.50000000 </v>
   <v>       0.33333333       0.50000000       0.50000000 </v>
   <v>       0.50000000       0.50000000       0.50000000 </v>
   <v>      -0.33333333       0.50000000       0.50000000 </v>
   <v>      -0.16666667       0.50000000       0.50000000 </v>
   <v>       0.00000000      -0.33333333       0.50000000 </v>
   <v>       0.16666667      -0.33333333       0.50000000 </v>
   <v>       0.33333333      -0.33333333       0.50000000 </v>
   <v>       0.50000000      -0.33333333       0.50000000 </v>
   <v>      -0.33333333      -0.33333333       0.50000000 </v>
   <v>      -0.16666667      -0.33333333       0.50000000 </v>
   <v>       0.00000000      -0.16666667       0.50000000 </v>
   <v>       0.16666667      -0.16666667       0.50000000 </v>
   <v>       0.33333333      -0.16666667       0.50000000 </v>
   <v>       0.50000000      -0.16666667       0.50000000 </v>
   <v>      -0.33333333      -0.16666667       0.50000000 </v>
   <v>      -0.16666667      -0.16666667       0.50000000 </v>
   <v>       0.00000000       0.00000000      -0.33333333 </v>
   <v>       0.16666667      -0.00000000      -0.33333333 </v>
   <v>       0.33333333       0.00000000      -0.33333333 </v>
   <v>       0.50000000       0.00000000      -0.33333333 </v>
   <v>      -0.33333333       0.00000000      -0.33333333 </v>
   <v>      -0.16666667       0.00000000      -0.33333333 </v>
   <v>       0.00000000       0.16666667      -0.33333333 </v>
   <v>       0.16666667       0.16666667      -0.33333333 </v>
   <v>       0.33333333       0.16666667      -0.33333333 </v>
   <v>       0.50000000       0.16666667      -0.33333333 </v>
   <v>      -0.33333333       0.16666667      -0.33333333 </v>
   <v>      -0.16666667       0.16666667      -0.33333333 </v>
   <v>       0.00000000       0.33333333      -0.33333333 </v>
   <v>       0.16666667       0.33333333      -0.33333333 </v>
   <v>       0.33333333       0.33333333      -0.33333333 </v>
   <v>       0.50000000       0.33333333      -0.33333333 </v>
   <v>      -0.33333333       0.33333333      -0.33333333 </v>
   <v>      -0.16666667       0.33333333      -0.33333333 </v>
   <v>       0.00000000       0.50000000      -0.33333333 </v>
   <v>       0.16666667       0.50000000      -0.33333333 </v>
   <v>       0.33333333       0.50000000      -0.33333333 </v>
   <v>       0.50000000       0.50000000      -0.33333333 </v>
   <v>      -0.33333333       0.50000000      -0.33333333 </v>
   <v>      -0.16666667       0.50000000      -0.33333333 </v>
   <v>       0.00000000      -0.33333333      -0.33333333 </v>
   <v>       0.16666667      -0.33333333      -0.33333333 </v>
   <v>       0.33333333      -0.33333333      -0.33333333 </v>
   <v>       0.50000000      -0.33333333      -0.33333333 </v>
   <v>      -0.33333333      -0.33333333      -0.33333333 </v>
   <v>      -0.16666667      -0.33333333      -0.33333333 </v>
   <v>       0.00000000      -0.16666667      -0.33333333 </v>
   <v>       0.16666667      -0.16666667      -0.33333333 </v>
   <v>       0.33333333      -0.16666667      -0.33333333 </v>
   <v>       0.50000000      -0.16666667      -0.33333333 </v>
   <v>      -0.33333333      -0.16666667      -0.33333333 </v>
   <v>      -0.16666667      -0.16666667      -0.33333333 </v>
   <v>       0.00000000       0.00000000      -0.16666667 </v>
   <v>       0.16666667      -0.00000000      -0.16666667 </v>
   <v>       0.33333333       0.00000000      -0.16666667 </v>
   <v>       0.50000000       0.00000000      -0.16666667 </v>
   <v>      -0.33333333       0.00000000      -0.16666667 </v>
   <v>      -0.16666667       0.00000000      -0.16666667 </v>
   <v>       0.00000000       0.16666667      -0.16666667 </v>
   <v>       0.16666667       0.16666667      -0.16666667 </v>
   <v>       0.33333333       0.16666667      -0.16666667 </v>
   <v>       0.50000000       0.16666667      -0.16666667 </v>
   <v>      -0.33333333       0.16666667      -0.16666667 </v>
   <v>      -0.16666667       0.16666667      -0.16666667 </v>
   <v>       0.00000000       0.33333333      -0.16666667 </v>
   <v>       0.16666667       0.33333333      -0.16666667 </v>
   <v>       0.33333333       0.33333333      -0.16666667 </v>
   <v>       0.50000000       0.33333333      -0.16666667 </v>
   <v>      -0.33333333       0.33333333      -0.16666667 </v>
   <v>      -0.16666667       0.33333333      -0.16666667 </v>
   <v>       0.00000000       0.50000000      -0.16666667 </v>
   <v>       0.16666667       0.50000000      -0.16666667 </v>
   <v>       0.33333333       0.50000000      -0.16666667 </v>
   <v>       0.50000000       0.50000000      -0.16666667 </v>
   <v>      -0.33333333       0.50000000      -0.16666667 </v>
   <v>      -0.16666667       0.50000000      -0.16666667 </v>
   <v>       0.00000000      -0.33333333      -0.16666667 </v>
   <v>       0.16666667      -0.33333333      -0.16666667 </v>
   <v>       0.33333333      -0.33333333      -0.16666667 </v>
   <v>       0.50000000      -0.33333333      -0.16666667 </v>
   <v>      -0.33333333      -0.33333333      -0.16666667 </v>
   <v>      -0.16666667      -0.33333333      -0.16666667 </v>
   <v>       0.00000000      -0.16666667      -0.16666667 </v>
   <v>       0.16666667      -0.16666667      -0.16666667 </v>
   <v>       0.33333333      -0.16666667      -0.16666667 </v>
   <v>       0.50000000      -0.16666667      -0.16666667 </v>
   <v>      -0.33333333      -0.16666667      -0.16666667 </v>
   <v>      -0.16666667      -0.16666667      -0.16666667 </v>
  </varray>
  <varray name="weights" >
   <v>       0.00462963 </v>
   <v>       0.00462963 </v>
   <v>       0.00462963 </v>
   <v>       0.00462963 </v>
   <v>       0.00462963 </v>
   <v>       0.00462963 </v>
   <v>       0.00462963 </v>
   <v>       0.00462963 </v>
   <v>       0.00462963 </v>
   <v>       0.00462963 </v>
   <v>       0.00462963 </v>
   <v>       0.00462963 </v>
   <v>       0.00462963 </v>
   <v>       0.00462963 </v>
   <v>       0.00462963 </v>
   <v>       0.00462963 </v>
   <v>       0.00462963 </v>
   <v>       0.00462963 </v>
   <v>       0.00462963 </v>
   <v>       0.00462963 </v>
   <v>       0.00462963 </v>
   <v>       0.00462963 </v>
   <v>       0.00462963 </v>
   <v>       0.00462963 </v>
   <v>       0.00462963 </v>
   <v>       0.00462963 </v>
   <v>       0.00462963 </v>
   <v>       0.00462963 </v>
   <v>       0.00462963 </v>
   <v>       0.00462963 </v>
   <v>       0.00462963 </v>
   <v>       0.00462963 </v>
   <v>       0.00462963 </v>
   <v>       0.00462963 </v>
   <v>       0.00462963 </v>
   <v>       0.00462963 </v>
   <v>       0.00462963 </v>
   <v>       0.00462963 </v>
   <v>       0.00462963 </v>
   <v>       0.00462963 </v>
   <v>       0.00462963 </v>
   <v>       0.00462963 </v>
   <v>       0.00462963 </v>
   <v>       0.00462963 </v>
   <v>       0.00462963 </v>
   <v>       0.00462963 </v>
   <v>       0.00462963 </v>
   <v>       0.00462963 </v>
   <v>       0.00462963 </v>
   <v>       0.00462963 </v>
   <v>       0.00462963 </v>
   <v>       0.00462963 </v>
   <v>       0.00462963 </v>
   <v>       0.00462963 </v>
   <v>       0.00462963 </v>
   <v>       0.00462963 </v>
   <v>       0.00462963 </v>
   <v>       0.00462963 </v>
   <v>       0.00462963 </v>
   <v>       0.00462963 </v>
   <v>       0.00462963 </v>
   <v>       0.00462963 </v>
   <v>       0.00462963 </v>
   <v>       0.00462963 </v>
   <v>       0.00462963 </v>
   <v>       0.00462963 </v>
   <v>       0.00462963 </v>
   <v>       0.00462963 </v>
   <v>       0.00462963 </v>
   <v>       0.00462963 </v>
   <v>       0.00462963 </v>
   <v>       0.00462963 </v>
   <v>       0.00462963 </v>
   <v>       0.00462963 </v>
   <v>       0.00462963 </v>
   <v>       0.00462963 </v>
   <v>       0.00462963 </v>
   <v>       0.00462963 </v>
   <v>       0.00462963 </v>
   <v>       0.00462963 </v>
   <v>       0.00462963 </v>
   <v>       0.00462963 </v>
   <v>       0.00462963 </v>
   <v>       0.00462963 </v>
   <v>       0.00462963 </v>
   <v>       0.00462963 </v>
   <v>       0.00462963 </v>
   <v>       0.00462963 </v>
   <v>       0.00462963 </v>
   <v>       0.00462963 </v>
   <v>       0.00462963 </v>
   <v>       0.00462963 </v>
   <v>       0.00462963 </v>
   <v>       0.00462963 </v>
   <v>       0.00462963 </v>
   <v>       0.00462963 </v>
   <v>       0.00462963 </v>
   <v>       0.00462963 </v>
   <v>       0.00462963 </v>
   <v>       0.00462963 </v>
   <v>       0.00462963 </v>
   <v>       0.00462963 </v>
   <v>       0.00462963 </v>
   <v>       0.00462963 </v>
   <v>       0.00462963 </v>
   <v>       0.00462963 </v>
   <v>       0.00462963 </v>
   <v>       0.00462963 </v>
   <v>       0.00462963 </v>
   <v>       0.00462963 </v>
   <v>       0.00462963 </v>
   <v>       0.00462963 </v>
   <v>       0.00462963 </v>
   <v>       0.00462963 </v>
   <v>       0.00462963 </v>
   <v>       0.00462963 </v>
   <v>       0.00462963 </v>
   <v>       0.00462963 </v>
   <v>       0.00462963 </v>
   <v>       0.00462963 </v>
   <v>       0.00462963 </v>
   <v>       0.00462963 </v>
   <v>       0.00462963 </v>
   <v>       0.00462963 </v>
   <v>       0.00462963 </v>
   <v>       0.00462963 </v>
   <v>       0.00462963 </v>
   <v>       0.00462963 </v>
   <v>       0.00462963 </v>
   <v>       0.00462963 </v>
   <v>       0.00462963 </v>
   <v>       0.00462963 </v>
   <v>       0.00462963 </v>
   <v>       0.00462963 </v>
   <v>       0.00462963 </v>
   <v>       0.00462963 </v>
   <v>       0.00462963 </v>
   <v>       0.00462963 </v>
   <v>       0.00462963 </v>
   <v>       0.00462963 </v>
   <v>       0.00462963 </v>
   <v>       0.00462963 </v>
   <v>       0.00462963 </v>
   <v>       0.00462963 </v>
   <v>       0.00462963 </v>
   <v>       0.00462963 </v>
   <v>       0.00462963 </v>
   <v>       0.00462963 </v>
   <v>       0.00462963 </v>
   <v>       0.00462963 </v>
   <v>       0.00462963 </v>
   <v>       0.00462963 </v>
   <v>       0.00462963 </v>
   <v>       0.00462963 </v>
   <v>       0.00462963 </v>
   <v>       0.00462963 </v>
   <v>       0.00462963 </v>
   <v>       0.00462963 </v>
   <v>       0.00462963 </v>
   <v>       0.00462963 </v>
   <v>       0.00462963 </v>
   <v>       0.00462963 </v>
   <v>       0.00462963 </v>
   <v>       0.00462963 </v>
   <v>       0.00462963 </v>
   <v>       0.00462963 </v>
   <v>       0.00462963 </v>
   <v>       0.00462963 </v>
   <v>       0.00462963 </v>
   <v>       0.00462963 </v>
   <v>       0.00462963 </v>
   <v>       0.00462963 </v>
   <v>       0.00462963 </v>
   <v>       0.00462963 </v>
   <v>       0.00462963 </v>
   <v>       0.00462963 </v>
   <v>       0.00462963 </v>
   <v>       0.00462963 </v>
   <v>       0.00462963 </v>
   <v>       0.00462963 </v>
   <v>       0.00462963 </v>
   <v>       0.00462963 </v>
   <v>       0.00462963 </v>
   <v>       0.00462963 </v>
   <v>       0.00462963 </v>
   <v>       0.00462963 </v>
   <v>       0.00462963 </v>
   <v>       0.00462963 </v>
   <v>       0.00462963 </v>
   <v>       0.00462963 </v>
   <v>       0.00462963 </v>
   <v>       0.00462963 </v>
   <v>       0.00462963 </v>
   <v>       0.00462963 </v>
   <v>       0.00462963 </v>
   <v>       0.00462963 </v>
   <v>       0.00462963 </v>
   <v>       0.00462963 </v>
   <v>       0.00462963 </v>
   <v>       0.00462963 </v>
   <v>       0.00462963 </v>
   <v>       0.00462963 </v>
   <v>       0.00462963 </v>
   <v>       0.00462963 </v>
   <v>       0.00462963 </v>
   <v>       0.00462963 </v>
   <v>       0.00462963 </v>
   <v>       0.00462963 </v>
   <v>       0.00462963 </v>
   <v>       0.00462963 </v>
   <v>       0.00462963 </v>
   <v>       0.00462963 </v>
   <v>       0.00462963 </v>
   <v>       0.00462963 </v>
   <v>       0.00462963 </v>
   <v>       0.00462963 </v>
  </varray>
 </kpoints>
 <parameters>
  <separator name="general" >
   <i type="string" name="SYSTEM">Og_FCC</i>
   <i type="logical" name="LCOMPAT"> F  </i>
  </separator>
  <separator name="electronic" >
   <i type="string" name="PREC">accura</i>
   <i name="ENMAX">    300.00000000</i>
   <i name="ENAUG">    755.75300000</i>
   <i name="EDIFF">      0.00000001</i>
   <i type="int" name="IALGO">    38</i>
   <i type="int" name="IWAVPR">    10</i>
   <i type="int" name="NBANDS">    18</i>
   <i name="NELECT">      8.00000000</i>
   <i type="int" name="TURBO">     0</i>
   <i type="int" name="IRESTART">     0</i>
   <i type="int" name="NREBOOT">     0</i>
   <i type="int" name="NMIN">     0</i>
   <i name="EREF">      0.00000000</i>
   <separator name="electronic smearing" >
    <i type="int" name="ISMEAR">     0</i>
    <i name="SIGMA">      0.00100000</i>
    <i name="KSPACING">      0.50000000</i>
    <i type="logical" name="KGAMMA"> T  </i>
   </separator>
   <separator name="electronic projectors" >
    <i type="logical" name="LREAL"> F  </i>
    <v name="ROPT">      0.00000000</v>
    <i type="int" name="LMAXPAW">  -100</i>
    <i type="int" name="LMAXMIX">     2</i>
    <i type="logical" name="NLSPLINE"> F  </i>
   </separator>
   <separator name="electronic startup" >
    <i type="int" name="ISTART">     1</i>
    <i type="int" name="ICHARG">     0</i>
    <i type="int" name="INIWAV">     1</i>
   </separator>
   <separator name="electronic spin" >
    <i type="int" name="ISPIN">     1</i>
    <i type="logical" name="LNONCOLLINEAR"> T  </i>
    <v name="MAGMOM">      1.00000000      1.00000000      1.00000000</v>
    <i name="NUPDOWN">     -1.00000000</i>
    <i type="logical" name="LSORBIT"> T  </i>
    <v name="SAXIS">      0.00000000      0.00000000      1.00000000</v>
    <i type="logical" name="LSPIRAL"> F  </i>
    <v name="QSPIRAL">      0.00000000      0.00000000      0.00000000</v>
    <i type="logical" name="LZEROZ"> F  </i>
   </separator>
   <separator name="electronic exchange-correlation" >
    <i type="logical" name="LASPH"> F  </i>
    <i type="logical" name="LMETAGGA"> F  </i>
   </separator>
   <separator name="electronic convergence" >
    <i type="int" name="NELM">    50</i>
    <i type="int" name="NELMDL">    -5</i>
    <i type="int" name="NELMIN">     2</i>
    <i name="ENINI">    300.00000000</i>
    <separator name="electronic convergence detail" >
     <i type="logical" name="LDIAG"> T  </i>
     <i type="logical" name="LSUBROT"> F  </i>
     <i name="WEIMIN">      0.00000000</i>
     <i name="EBREAK">      0.00000000</i>
     <i name="DEPER">      0.30000000</i>
     <i type="int" name="NRMM">     4</i>
     <i name="TIME">      0.40000000</i>
    </separator>
   </separator>
   <separator name="electronic mixer" >
    <i name="AMIX">      0.40000000</i>
    <i name="BMIX">      1.00000000</i>
    <i name="AMIN">      0.10000000</i>
    <i name="AMIX_MAG">      1.60000000</i>
    <i name="BMIX_MAG">      1.00000000</i>
    <separator name="electronic mixer details" >
     <i type="int" name="IMIX">     4</i>
     <i type="logical" name="MIXFIRST"> F  </i>
     <i type="int" name="MAXMIX">    50</i>
     <i name="WC">    100.00000000</i>
     <i type="int" name="INIMIX">     1</i>
     <i type="int" name="MIXPRE">     1</i>
     <i type="int" name="MREMOVE">     5</i>
    </separator>
   </separator>
   <separator name="electronic dipolcorrection" >
    <i type="logical" name="LDIPOL"> F  </i>
    <i type="logical" name="LMONO"> F  </i>
    <i type="int" name="IDIPOL">     0</i>
    <i name="EPSILON">      1.00000000</i>
    <v name="DIPOL">   -100.00000000   -100.00000000   -100.00000000</v>
    <i name="EFIELD">      0.00000000</i>
   </separator>
  </separator>
  <separator name="grids" >
   <i type="int" name="NGX">    18</i>
   <i type="int" name="NGY">    18</i>
   <i type="int" name="NGZ">    18</i>
   <i type="int" name="NGXF">    36</i>
   <i type="int" name="NGYF">    36</i>
   <i type="int" name="NGZF">    36</i>
   <i type="logical" name="ADDGRID"> T  </i>
  </separator>
  <separator name="ionic" >
   <i type="int" name="NSW">     1</i>
   <i type="int" name="IBRION">    -1</i>
   <i type="int" name="MDALGO">     0</i>
   <i type="int" name="ISIF">     3</i>
   <i name="PSTRESS">      0.00000000</i>
   <i name="EDIFFG">      0.00001000</i>
   <i type="int" name="NFREE">     5</i>
   <i name="POTIM">      0.10000000</i>
   <i name="SMASS">     -3.00000000</i>
   <i name="SCALEE">      1.00000000</i>
  </separator>
  <separator name="ionic md" >
   <i name="TEBEG">      0.00010000</i>
   <i name="TEEND">      0.00010000</i>
   <i type="int" name="NBLOCK">     1</i>
   <i type="int" name="KBLOCK">     1</i>
   <i type="int" name="NPACO">   256</i>
   <i name="APACO">     16.00000000</i>
  </separator>
  <separator name="symmetry" >
   <i type="int" name="ISYM">     0</i>
   <i name="SYMPREC">      0.00000010</i>
  </separator>
  <separator name="dos" >
   <i type="int" name="LORBIT">     0</i>
   <v name="RWIGS">     -1.00000000</v>
   <i type="int" name="NEDOS">   301</i>
   <i name="EMIN">     10.00000000</i>
   <i name="EMAX">    -10.00000000</i>
   <i name="EFERMI">      0.00000000</i>
  </separator>
  <separator name="writing" >
   <i type="int" name="NWRITE">     2</i>
   <i type="logical" name="LWAVE"> T  </i>
   <i type="logical" name="LDOWNSAMPLE"> F  </i>
   <i type="logical" name="LCHARG"> F  </i>
   <i type="logical" name="LPARD"> F  </i>
   <i type="logical" name="LVTOT"> F  </i>
   <i type="logical" name="LVHAR"> F  </i>
   <i type="logical" name="LELF"> F  </i>
   <i type="logical" name="LOPTICS"> T  </i>
   <v name="STM">      0.00000000      0.00000000      0.00000000      0.00000000      0.00000000      0.00000000      0.00000000</v>
  </separator>
  <separator name="performance" >
   <i type="int" name="NPAR">     1</i>
   <i type="int" name="NSIM">     4</i>
   <i type="int" name="NBLK">    -1</i>
   <i type="logical" name="LPLANE"> T  </i>
   <i type="logical" name="LSCALAPACK"> T  </i>
   <i type="logical" name="LSCAAWARE"> F  </i>
   <i type="logical" name="LSCALU"> F  </i>
   <i type="logical" name="LASYNC"> F  </i>
   <i type="logical" name="LORBITALREAL"> F  </i>
  </separator>
  <separator name="miscellaneous" >
   <i type="int" name="IDIOT">     3</i>
   <i type="int" name="ISPECIAL">     0</i>
   <i type="logical" name="LMUSIC"> F  </i>
   <v name="POMASS">     20.18000000</v>
   <v name="DARWINR">      0.00000000</v>
   <v name="DARWINV">      1.00000000</v>
   <i type="logical" name="LCORR"> T  </i>
  </separator>
  <i type="logical" name="GGA_COMPAT"> F  </i>
  <i type="logical" name="LBERRY"> F  </i>
  <i type="int" name="ICORELEVEL">     0</i>
  <i type="logical" name="LDAU"> F  </i>
  <i type="int" name="I_CONSTRAINED_M">     0</i>
  <separator name="electronic exchange-correlation" >
   <i type="string" name="GGA">PE</i>
   <i type="int" name="VOSKOWN">     0</i>
   <i type="logical" name="LHFCALC"> F  </i>
   <i type="string" name="PRECFOCK"></i>
   <i type="logical" name="LSYMGRAD"> F  </i>
   <i type="logical" name="LHFONE"> F  </i>
   <i type="logical" name="LRHFCALC"> F  </i>
   <i type="logical" name="LTHOMAS"> F  </i>
   <i type="logical" name="LMODELHF"> F  </i>
   <i name="ENCUT4O">     -1.00000000</i>
   <i type="int" name="EXXOEP">     0</i>
   <i type="int" name="FOURORBIT">     0</i>
   <i name="AEXX">      0.00000000</i>
   <i name="HFALPHA">      0.00000000</i>
   <i name="MCALPHA">      0.00000000</i>
   <i name="ALDAX">      1.00000000</i>
   <i name="AGGAX">      1.00000000</i>
   <i name="ALDAC">      1.00000000</i>
   <i name="AGGAC">      1.00000000</i>
   <i type="int" name="NKREDX">     1</i>
   <i type="int" name="NKREDY">     1</i>
   <i type="int" name="NKREDZ">     1</i>
   <i type="logical" name="SHIFTRED"> F  </i>
   <i type="logical" name="ODDONLY"> F  </i>
   <i type="logical" name="EVENONLY"> F  </i>
   <i type="int" name="LMAXFOCK">     0</i>
   <i type="int" name="NMAXFOCKAE">     0</i>
   <i type="logical" name="LFOCKAEDFT"> F  </i>
   <i name="HFSCREEN">      0.00000000</i>
   <i name="HFSCREENC">      0.00000000</i>
   <i type="int" name="NBANDSGWLOW">     0</i>
  </separator>
  <separator name="vdW DFT" >
   <i type="logical" name="LUSE_VDW"> F  </i>
   <i name="Zab_VDW">     -0.84910000</i>
   <i name="PARAM1">      0.12340000</i>
   <i name="PARAM2">      1.00000000</i>
   <i name="PARAM3">      0.00000000</i>
  </separator>
  <separator name="model GW" >
   <i type="int" name="MODEL_GW">     0</i>
   <i name="MODEL_EPS0">     13.34470917</i>
   <i name="MODEL_ALPHA">      1.00000000</i>
  </separator>
  <separator name="linear response parameters" >
   <i type="logical" name="LEPSILON"> F  </i>
   <i type="logical" name="LRPA"> F  </i>
   <i type="logical" name="LNABLA"> F  </i>
   <i type="logical" name="LVEL"> F  </i>
   <i type="int" name="KINTER">     0</i>
   <i name="CSHIFT">      0.10000000</i>
   <i name="OMEGAMAX">     -1.00000000</i>
   <i name="DEG_THRESHOLD">      0.00200000</i>
   <i name="RTIME">     -0.10000000</i>
   <i name="WPLASMAI">      0.00000000</i>
   <v name="DFIELD">      0.00000000      0.00000000      0.00000000</v>
   <v name="WPLASMA">      0.00000000      0.00000000      0.00000000      0.00000000      0.00000000      0.00000000      0.00000000      0.00000000      0.00000000</v>
  </separator>
  <separator name="orbital magnetization" >
   <i type="logical" name="NUCIND"> F  </i>
   <v name="MAGPOS">      0.00000000      0.00000000      0.00000000</v>
   <i type="logical" name="LNICSALL"> T  </i>
   <i type="logical" name="ORBITALMAG"> F  </i>
   <i type="logical" name="LMAGBLOCH"> F  </i>
   <i type="logical" name="LCHIMAG"> F  </i>
   <i type="logical" name="LGAUGE"> T  </i>
   <i type="int" name="MAGATOM">     0</i>
   <v name="MAGDIPOL">      0.00000000      0.00000000      0.00000000</v>
   <v name="AVECCONST">      0.00000000      0.00000000      0.00000000</v>
  </separator>
  <separator name="response functions" >
   <i type="logical" name="LADDER"> F  </i>
   <i type="logical" name="LRPAFORCE"> F  </i>
   <i type="logical" name="LFXC"> F  </i>
   <i type="logical" name="LHARTREE"> T  </i>
   <i type="int" name="IBSE">     0</i>
   <v type="int" name="KPOINT">    -1     0     0     0</v>
   <i type="logical" name="LTCTE"> F  </i>
   <i type="logical" name="LTETE"> F  </i>
   <i type="logical" name="LTRIPLET"> F  </i>
   <i type="logical" name="LFXCEPS"> F  </i>
   <i type="logical" name="LFXHEG"> F  </i>
   <i type="int" name="NATURALO">     2</i>
   <i type="logical" name="L2ORDER"> F  </i>
   <i type="logical" name="LMP2LT"> F  </i>
   <i type="logical" name="LUSEW"> F  </i>
   <i name="ENCUTGW">     -2.00000000</i>
   <i name="ENCUTGWSOFT">     -2.00000000</i>
   <i name="ENCUTLF">     -1.00000000</i>
   <i type="int" name="LMAXMP2">    -1</i>
   <i name="SCISSOR">      0.00000000</i>
   <i type="int" name="NOMEGA">     0</i>
   <i type="int" name="NOMEGAR">     0</i>
   <i type="int" name="NBANDSGW">    -1</i>
   <i type="int" name="NBANDSO">    -1</i>
   <i type="int" name="NBANDSV">    -1</i>
   <i type="int" name="NELM">    50</i>
   <i type="int" name="NELMHF">     1</i>
   <i type="int" name="DIM">     3</i>
   <i type="int" name="ANTIRES">     0</i>
   <i name="OMEGAMAX">    -30.00000000</i>
   <i name="OMEGAMIN">    -30.00000000</i>
   <i name="OMEGATL">   -200.00000000</i>
   <i type="int" name="OMEGAGRID">   140</i>
   <i name="CSHIFT">     -0.10000000</i>
   <i type="logical" name="SELFENERGY"> F  </i>
   <i type="logical" name="LSPECTRAL"> F  </i>
   <i type="logical" name="LSPECTRALGW"> F  </i>
   <i type="logical" name="LSINGLES"> F  </i>
   <i type="logical" name="LFERMIGW"> F  </i>
   <i type="logical" name="ODDONLYGW"> F  </i>
   <i type="logical" name="EVENONLYGW"> F  </i>
   <i type="int" name="NKREDLFX">     1</i>
   <i type="int" name="NKREDLFY">     1</i>
   <i type="int" name="NKREDLFZ">     1</i>
   <i type="int" name="MAXMEM">  2800</i>
   <i type="int" name="TELESCOPE">     0</i>
   <i type="int" name="TAUPAR">     1</i>
   <i type="int" name="OMEGAPAR">    -1</i>
   <i name="LAMBDA">      1.00000000</i>
  </separator>
  <separator name="External order field" >
   <i name="OFIELD_KAPPA">      0.00000000</i>
   <v name="OFIELD_K">      0.00000000      0.00000000      0.00000000</v>
   <i name="OFIELD_Q6_NEAR">      0.00000000</i>
   <i name="OFIELD_Q6_FAR">      0.00000000</i>
   <i name="OFIELD_A">      0.00000000</i>
  </separator>
 </parameters>
 <atominfo>
  <atoms>       1 </atoms>
  <types>       1 </types>
  <array name="atoms" >
   <dimension dim="1">ion</dimension>
   <field type="string">element</field>
   <field type="int">atomtype</field>
   <set>
    <rc><c>Ne</c><c>   1</c></rc>
   </set>
  </array>
  <array name="atomtypes" >
   <dimension dim="1">type</dimension>
   <field type="int">atomspertype</field>
   <field type="string">element</field>
   <field>mass</field>
   <field>valence</field>
   <field type="string">pseudopotential</field>
   <set>
    <rc><c>   1</c><c>Ne</c><c>     20.18000000</c><c>      8.00000000</c><c>  PAW_PBE Ne_GW 22Sep2014               </c></rc>
   </set>
  </array>
 </atominfo>
 <structure name="initialpos" >
  <crystal>
   <varray name="basis" >
    <v>       3.15663441       0.00000000       0.00000000 </v>
    <v>       1.57831721       2.73372559       0.00000000 </v>
    <v>       1.57831721       0.91124186       2.57738121 </v>
   </varray>
   <i name="volume">     22.24118194 </i>
   <varray name="rec_basis" >
    <v>       0.31679310      -0.18290058      -0.12933024 </v>
    <v>       0.00000000       0.36580116      -0.12933024 </v>
    <v>       0.00000000       0.00000000       0.38799072 </v>
   </varray>
  </crystal>
  <varray name="positions" >
   <v>       0.00000000       0.00000000       0.00000000 </v>
  </varray>
  <varray name="velocities" >
   <v>       0.00000000       0.00000000       0.00000000 </v>
  </varray>
 </structure>
 <calculation>
  <scstep>
   <time name="dav">    0.69    0.69</time>
   <time name="total">    0.72    0.72</time>
   <energy>
    <i name="alphaZ">     13.95530511 </i>
    <i name="ewald">   -473.25263642 </i>
    <i name="hartreedc">   -296.60702021 </i>
    <i name="XCdc">     41.98238366 </i>
    <i name="pawpsdc">    765.30273914 </i>
    <i name="pawaedc">   -788.71178324 </i>
    <i name="eentropy">      0.00000000 </i>
    <i name="bandstr">   -222.46564375 </i>
    <i name="atom">    952.67806118 </i>
    <i name="e_fr_energy">     -7.11859453 </i>
    <i name="e_wo_entrp">     -7.11859453 </i>
    <i name="e_0_energy">     -7.11859453 </i>
   </energy>
  </scstep>
  <scstep>
   <time name="dav">    0.68    0.68</time>
   <time name="total">    0.68    0.68</time>
   <energy>
    <i name="e_fr_energy">     -7.32213570 </i>
    <i name="e_wo_entrp">     -7.32213570 </i>
    <i name="e_0_energy">     -7.32213570 </i>
   </energy>
  </scstep>
  <scstep>
   <time name="dav">    0.69    0.69</time>
   <time name="total">    0.69    0.69</time>
   <energy>
    <i name="e_fr_energy">     -7.32222022 </i>
    <i name="e_wo_entrp">     -7.32222022 </i>
    <i name="e_0_energy">     -7.32222022 </i>
   </energy>
  </scstep>
  <scstep>
   <time name="dav">    0.69    0.69</time>
   <time name="total">    0.69    0.69</time>
   <energy>
    <i name="e_fr_energy">     -7.32222032 </i>
    <i name="e_wo_entrp">     -7.32222032 </i>
    <i name="e_0_energy">     -7.32222032 </i>
   </energy>
  </scstep>
  <scstep>
   <time name="dav">    0.58    0.58</time>
   <time name="total">    0.63    0.63</time>
   <energy>
    <i name="e_fr_energy">     -7.32222032 </i>
    <i name="e_wo_entrp">     -7.32222032 </i>
    <i name="e_0_energy">     -7.32222032 </i>
   </energy>
  </scstep>
  <scstep>
   <time name="dav">    0.77    0.77</time>
   <time name="total">    0.85    0.85</time>
   <energy>
    <i name="e_fr_energy">      2.42830665 </i>
    <i name="e_wo_entrp">      2.42830665 </i>
    <i name="e_0_energy">      2.42830665 </i>
   </energy>
  </scstep>
  <scstep>
   <time name="dav">    0.75    0.75</time>
   <time name="total">    0.82    0.82</time>
   <energy>
    <i name="e_fr_energy">      3.03632094 </i>
    <i name="e_wo_entrp">      3.03632094 </i>
    <i name="e_0_energy">      3.03632094 </i>
   </energy>
  </scstep>
  <scstep>
   <time name="dav">    0.66    0.66</time>
   <time name="total">    0.73    0.73</time>
   <energy>
    <i name="e_fr_energy">      3.04285454 </i>
    <i name="e_wo_entrp">      3.04285454 </i>
    <i name="e_0_energy">      3.04285454 </i>
   </energy>
  </scstep>
  <scstep>
   <time name="dav">    0.67    0.67</time>
   <time name="total">    0.74    0.74</time>
   <energy>
    <i name="e_fr_energy">      3.04702501 </i>
    <i name="e_wo_entrp">      3.04702501 </i>
    <i name="e_0_energy">      3.04702501 </i>
   </energy>
  </scstep>
  <scstep>
   <time name="dav">    0.68    0.68</time>
   <time name="total">    0.75    0.75</time>
   <energy>
    <i name="e_fr_energy">      3.04710045 </i>
    <i name="e_wo_entrp">      3.04710045 </i>
    <i name="e_0_energy">      3.04710045 </i>
   </energy>
  </scstep>
  <scstep>
   <time name="dav">    0.71    0.71</time>
   <time name="total">    0.78    0.78</time>
   <energy>
    <i name="e_fr_energy">      3.04710885 </i>
    <i name="e_wo_entrp">      3.04710885 </i>
    <i name="e_0_energy">      3.04710885 </i>
   </energy>
  </scstep>
  <scstep>
   <time name="dav">    0.68    0.68</time>
   <time name="total">    0.75    0.75</time>
   <energy>
    <i name="e_fr_energy">      3.04710893 </i>
    <i name="e_wo_entrp">      3.04710893 </i>
    <i name="e_0_energy">      3.04710893 </i>
   </energy>
  </scstep>
  <scstep>
   <time name="dav">    0.68    0.68</time>
   <time name="total">    0.76    0.76</time>
   <energy>
    <i name="e_fr_energy">      3.04710890 </i>
    <i name="e_wo_entrp">      3.04710890 </i>
    <i name="e_0_energy">      3.04710890 </i>
   </energy>
  </scstep>
  <scstep>
   <time name="dav">    0.57    0.57</time>
   <time name="total">    0.64    0.64</time>
   <energy>
    <i name="e_fr_energy">      3.04710887 </i>
    <i name="e_wo_entrp">      3.04710887 </i>
    <i name="e_0_energy">      3.04710887 </i>
   </energy>
  </scstep>
  <scstep>
   <time name="dav">    0.45    0.45</time>
   <time name="total">    0.53    0.53</time>
   <energy>
    <i name="e_fr_energy">      3.04710885 </i>
    <i name="e_wo_entrp">      3.04710885 </i>
    <i name="e_0_energy">      3.04710885 </i>
   </energy>
  </scstep>
  <scstep>
   <time name="dav">    0.45    0.45</time>
   <time name="total">    0.48    0.48</time>
   <energy>
    <i name="alphaZ">     13.95530511 </i>
    <i name="ewald">   -473.25263642 </i>
    <i name="hartreedc">   -354.50515436 </i>
    <i name="XCdc">     45.52570128 </i>
    <i name="pawpsdc">    736.65016232 </i>
    <i name="pawaedc">   -778.06586424 </i>
    <i name="eentropy">     -0.00000000 </i>
    <i name="bandstr">   -139.93846601 </i>
    <i name="atom">    952.67806118 </i>
    <i name="e_fr_energy">      3.04710885 </i>
    <i name="e_wo_entrp">      3.04710885 </i>
    <i name="e_0_energy">      3.04710885 </i>
   </energy>
  </scstep>
  <structure>
   <crystal>
    <varray name="basis" >
     <v>       3.15663441       0.00000000       0.00000000 </v>
     <v>       1.57831721       2.73372559       0.00000000 </v>
     <v>       1.57831721       0.91124186       2.57738121 </v>
    </varray>
    <i name="volume">     22.24118194 </i>
    <varray name="rec_basis" >
     <v>       0.31679310      -0.18290058      -0.12933024 </v>
     <v>       0.00000000       0.36580116      -0.12933024 </v>
     <v>       0.00000000       0.00000000       0.38799072 </v>
    </varray>
   </crystal>
   <varray name="positions" >
    <v>       0.00000000       0.00000000       0.00000000 </v>
   </varray>
  </structure>
  <varray name="forces" >
   <v>      -0.00000000       0.00000000      -0.00000000 </v>
  </varray>
  <varray name="stress" >
   <v>   -2231.74383612      -0.00077937      -0.00067250 </v>
   <v>      -0.00077974   -2231.74432408      -0.00079638 </v>
   <v>      -0.00067192      -0.00079649   -2231.73928576 </v>
  </varray>
  <energy>
   <i name="e_fr_energy">      3.02810346 </i>
   <i name="e_wo_entrp">      3.02810346 </i>
   <i name="e_0_energy">     -0.00000000 </i>
  </energy>
  <time name="totalsc">   11.95   12.10</time>
  <eigenvalues>
   <array>
    <dimension dim="1">band</dimension>
    <dimension dim="2">kpoint</dimension>
    <dimension dim="3">spin</dimension>
    <field>eigene</field>
    <field>occ</field>
    <set>
     <set comment="spin 1">
      <set comment="kpoint 1">
       <r>  -35.4953    1.0000 </r>
       <r>  -35.4953    1.0000 </r>
       <r>  -11.2029    1.0000 </r>
       <r>  -11.2029    1.0000 </r>
       <r>  -11.1082    1.0000 </r>
       <r>  -11.1082    1.0000 </r>
       <r>  -11.1082    1.0000 </r>
       <r>  -11.1082    1.0000 </r>
       <r>    0.3888    0.0000 </r>
       <r>    0.3888    0.0000 </r>
       <r>   18.4519    0.0000 </r>
       <r>   18.4519    0.0000 </r>
       <r>   18.4520    0.0000 </r>
       <r>   18.4520    0.0000 </r>
       <r>   18.4521    0.0000 </r>
       <r>   18.4521    0.0000 </r>
       <r>   20.3342    0.0000 </r>
       <r>   20.3342    0.0000 </r>
      </set>
      <set comment="kpoint 2">
       <r>  -35.5020    1.0000 </r>
       <r>  -35.5020    1.0000 </r>
       <r>  -11.6928    1.0000 </r>
       <r>  -11.6928    1.0000 </r>
       <r>  -11.4349    1.0000 </r>
       <r>  -11.4349    1.0000 </r>
       <r>  -11.3782    1.0000 </r>
       <r>  -11.3782    1.0000 </r>
       <r>    1.1489    0.0000 </r>
       <r>    1.1489    0.0000 </r>
       <r>   14.3542    0.0000 </r>
       <r>   14.3542    0.0000 </r>
       <r>   18.2028    0.0000 </r>
       <r>   18.2028    0.0000 </r>
       <r>   18.2045    0.0000 </r>
       <r>   18.2045    0.0000 </r>
       <r>   20.4581    0.0000 </r>
       <r>   20.4581    0.0000 </r>
      </set>
      <set comment="kpoint 3">
       <r>  -35.4378    1.0000 </r>
       <r>  -35.4378    1.0000 </r>
       <r>  -11.4580    1.0000 </r>
       <r>  -11.4580    1.0000 </r>
       <r>  -11.2567    1.0000 </r>
       <r>  -11.2567    1.0000 </r>
       <r>  -11.2028    1.0000 </r>
       <r>  -11.2028    1.0000 </r>
       <r>    3.3298    0.0000 </r>
       <r>    3.3298    0.0000 </r>
       <r>   10.0487    0.0000 </r>
       <r>   10.0487    0.0000 </r>
       <r>   17.4801    0.0000 </r>
       <r>   17.4801    0.0000 </r>
       <r>   17.4808    0.0000 </r>
       <r>   17.4808    0.0000 </r>
       <r>   19.2848    0.0000 </r>
       <r>   19.2848    0.0000 </r>
      </set>
      <set comment="kpoint 4">
       <r>  -35.4408    1.0000 </r>
       <r>  -35.4408    1.0000 </r>
       <r>  -11.7120    1.0000 </r>
       <r>  -11.7120    1.0000 </r>
       <r>  -11.5521    1.0000 </r>
       <r>  -11.5521    1.0000 </r>
       <r>  -11.4990    1.0000 </r>
       <r>  -11.4990    1.0000 </r>
       <r>    6.2883    0.0000 </r>
       <r>    6.2883    0.0000 </r>
       <r>    6.3379    0.0000 </r>
       <r>    6.3379    0.0000 </r>
       <r>   17.0780    0.0000 </r>
       <r>   17.0780    0.0000 </r>
       <r>   17.0782    0.0000 </r>
       <r>   17.0782    0.0000 </r>
       <r>   19.0521    0.0000 </r>
       <r>   19.0521    0.0000 </r>
      </set>
      <set comment="kpoint 5">
       <r>  -35.4378    1.0000 </r>
       <r>  -35.4378    1.0000 </r>
       <r>  -11.4580    1.0000 </r>
       <r>  -11.4580    1.0000 </r>
       <r>  -11.2567    1.0000 </r>
       <r>  -11.2567    1.0000 </r>
       <r>  -11.2028    1.0000 </r>
       <r>  -11.2028    1.0000 </r>
       <r>    3.3298    0.0000 </r>
       <r>    3.3298    0.0000 </r>
       <r>   10.0487    0.0000 </r>
       <r>   10.0487    0.0000 </r>
       <r>   17.4801    0.0000 </r>
       <r>   17.4801    0.0000 </r>
       <r>   17.4808    0.0000 </r>
       <r>   17.4808    0.0000 </r>
       <r>   19.2848    0.0000 </r>
       <r>   19.2848    0.0000 </r>
      </set>
      <set comment="kpoint 6">
       <r>  -35.5020    1.0000 </r>
       <r>  -35.5020    1.0000 </r>
       <r>  -11.6928    1.0000 </r>
       <r>  -11.6928    1.0000 </r>
       <r>  -11.4349    1.0000 </r>
       <r>  -11.4349    1.0000 </r>
       <r>  -11.3782    1.0000 </r>
       <r>  -11.3782    1.0000 </r>
       <r>    1.1489    0.0000 </r>
       <r>    1.1489    0.0000 </r>
       <r>   14.3542    0.0000 </r>
       <r>   14.3542    0.0000 </r>
       <r>   18.2028    0.0000 </r>
       <r>   18.2028    0.0000 </r>
       <r>   18.2045    0.0000 </r>
       <r>   18.2045    0.0000 </r>
       <r>   20.4581    0.0000 </r>
       <r>   20.4581    0.0000 </r>
      </set>
      <set comment="kpoint 7">
       <r>  -35.5020    1.0000 </r>
       <r>  -35.5020    1.0000 </r>
       <r>  -11.6928    1.0000 </r>
       <r>  -11.6928    1.0000 </r>
       <r>  -11.4349    1.0000 </r>
       <r>  -11.4349    1.0000 </r>
       <r>  -11.3782    1.0000 </r>
       <r>  -11.3782    1.0000 </r>
       <r>    1.1489    0.0000 </r>
       <r>    1.1489    0.0000 </r>
       <r>   14.3542    0.0000 </r>
       <r>   14.3542    0.0000 </r>
       <r>   18.2028    0.0000 </r>
       <r>   18.2028    0.0000 </r>
       <r>   18.2045    0.0000 </r>
       <r>   18.2045    0.0000 </r>
       <r>   20.4582    0.0000 </r>
       <r>   20.4582    0.0000 </r>
      </set>
      <set comment="kpoint 8">
       <r>  -35.4795    1.0000 </r>
       <r>  -35.4795    1.0000 </r>
       <r>  -11.5077    1.0000 </r>
       <r>  -11.5077    1.0000 </r>
       <r>  -11.3162    1.0000 </r>
       <r>  -11.3162    1.0000 </r>
       <r>  -11.2636    1.0000 </r>
       <r>  -11.2636    1.0000 </r>
       <r>    1.3993    0.0000 </r>
       <r>    1.3993    0.0000 </r>
       <r>   15.1264    0.0000 </r>
       <r>   15.1264    0.0000 </r>
       <r>   17.1078    0.0000 </r>
       <r>   17.1078    0.0000 </r>
       <r>   17.1133    0.0000 </r>
       <r>   17.1133    0.0000 </r>
       <r>   17.5058    0.0000 </r>
       <r>   17.5058    0.0000 </r>
      </set>
      <set comment="kpoint 9">
       <r>  -35.4590    1.0000 </r>
       <r>  -35.4590    1.0000 </r>
       <r>  -11.7030    1.0000 </r>
       <r>  -11.7030    1.0000 </r>
       <r>  -11.5244    1.0000 </r>
       <r>  -11.5244    1.0000 </r>
       <r>  -11.4652    1.0000 </r>
       <r>  -11.4652    1.0000 </r>
       <r>    3.0474    0.0000 </r>
       <r>    3.0474    0.0000 </r>
       <r>   11.6657    0.0000 </r>
       <r>   11.6657    0.0000 </r>
       <r>   14.7912    0.0000 </r>
       <r>   14.7912    0.0000 </r>
       <r>   16.5132    0.0000 </r>
       <r>   16.5132    0.0000 </r>
       <r>   18.2216    0.0000 </r>
       <r>   18.2216    0.0000 </r>
      </set>
      <set comment="kpoint 10">
       <r>  -35.4292    1.0000 </r>
       <r>  -35.4292    1.0000 </r>
       <r>  -11.6952    1.0000 </r>
       <r>  -11.6952    1.0000 </r>
       <r>  -11.4969    1.0000 </r>
       <r>  -11.4969    1.0000 </r>
       <r>  -11.4396    1.0000 </r>
       <r>  -11.4396    1.0000 </r>
       <r>    5.7337    0.0000 </r>
       <r>    5.7337    0.0000 </r>
       <r>    7.9176    0.0000 </r>
       <r>    7.9176    0.0000 </r>
       <r>   13.6632    0.0000 </r>
       <r>   13.6632    0.0000 </r>
       <r>   16.4744    0.0000 </r>
       <r>   16.4744    0.0000 </r>
       <r>   18.7980    0.0000 </r>
       <r>   18.7980    0.0000 </r>
      </set>
      <set comment="kpoint 11">
       <r>  -35.4267    1.0000 </r>
       <r>  -35.4267    1.0000 </r>
       <r>  -11.6187    1.0000 </r>
       <r>  -11.6187    1.0000 </r>
       <r>  -11.3832    1.0000 </r>
       <r>  -11.3832    1.0000 </r>
       <r>  -11.2742    1.0000 </r>
       <r>  -11.2742    1.0000 </r>
       <r>    4.7730    0.0000 </r>
       <r>    4.7730    0.0000 </r>
       <r>    9.1504    0.0000 </r>
       <r>    9.1504    0.0000 </r>
       <r>   13.2705    0.0000 </r>
       <r>   13.2705    0.0000 </r>
       <r>   17.2401    0.0000 </r>
       <r>   17.2401    0.0000 </r>
       <r>   20.0489    0.0000 </r>
       <r>   20.0489    0.0000 </r>
      </set>
      <set comment="kpoint 12">
       <r>  -35.4696    1.0000 </r>
       <r>  -35.4696    1.0000 </r>
       <r>  -11.6148    1.0000 </r>
       <r>  -11.6148    1.0000 </r>
       <r>  -11.5130    1.0000 </r>
       <r>  -11.5130    1.0000 </r>
       <r>  -11.3963    1.0000 </r>
       <r>  -11.3963    1.0000 </r>
       <r>    2.3866    0.0000 </r>
       <r>    2.3866    0.0000 </r>
       <r>   12.6298    0.0000 </r>
       <r>   12.6298    0.0000 </r>
       <r>   14.3432    0.0000 </r>
       <r>   14.3432    0.0000 </r>
       <r>   18.9456    0.0000 </r>
       <r>   18.9456    0.0000 </r>
       <r>   20.0978    0.0000 </r>
       <r>   20.0978    0.0000 </r>
      </set>
      <set comment="kpoint 13">
       <r>  -35.4378    1.0000 </r>
       <r>  -35.4378    1.0000 </r>
       <r>  -11.4580    1.0000 </r>
       <r>  -11.4580    1.0000 </r>
       <r>  -11.2567    1.0000 </r>
       <r>  -11.2567    1.0000 </r>
       <r>  -11.2028    1.0000 </r>
       <r>  -11.2028    1.0000 </r>
       <r>    3.3298    0.0000 </r>
       <r>    3.3298    0.0000 </r>
       <r>   10.0487    0.0000 </r>
       <r>   10.0487    0.0000 </r>
       <r>   17.4801    0.0000 </r>
       <r>   17.4801    0.0000 </r>
       <r>   17.4808    0.0000 </r>
       <r>   17.4808    0.0000 </r>
       <r>   19.2849    0.0000 </r>
       <r>   19.2849    0.0000 </r>
      </set>
      <set comment="kpoint 14">
       <r>  -35.4590    1.0000 </r>
       <r>  -35.4590    1.0000 </r>
       <r>  -11.7030    1.0000 </r>
       <r>  -11.7030    1.0000 </r>
       <r>  -11.5244    1.0000 </r>
       <r>  -11.5244    1.0000 </r>
       <r>  -11.4652    1.0000 </r>
       <r>  -11.4652    1.0000 </r>
       <r>    3.0474    0.0000 </r>
       <r>    3.0474    0.0000 </r>
       <r>   11.6657    0.0000 </r>
       <r>   11.6657    0.0000 </r>
       <r>   14.7912    0.0000 </r>
       <r>   14.7912    0.0000 </r>
       <r>   16.5132    0.0000 </r>
       <r>   16.5132    0.0000 </r>
       <r>   18.2216    0.0000 </r>
       <r>   18.2216    0.0000 </r>
      </set>
      <set comment="kpoint 15">
       <r>  -35.4364    1.0000 </r>
       <r>  -35.4364    1.0000 </r>
       <r>  -11.6759    1.0000 </r>
       <r>  -11.6759    1.0000 </r>
       <r>  -11.5168    1.0000 </r>
       <r>  -11.5168    1.0000 </r>
       <r>  -11.4659    1.0000 </r>
       <r>  -11.4659    1.0000 </r>
       <r>    4.1022    0.0000 </r>
       <r>    4.1022    0.0000 </r>
       <r>   12.1061    0.0000 </r>
       <r>   12.1061    0.0000 </r>
       <r>   12.6535    0.0000 </r>
       <r>   12.6535    0.0000 </r>
       <r>   15.8877    0.0000 </r>
       <r>   15.8877    0.0000 </r>
       <r>   15.8985    0.0000 </r>
       <r>   15.8985    0.0000 </r>
      </set>
      <set comment="kpoint 16">
       <r>  -35.4128    1.0000 </r>
       <r>  -35.4128    1.0000 </r>
       <r>  -11.6157    1.0000 </r>
       <r>  -11.6157    1.0000 </r>
       <r>  -11.5275    1.0000 </r>
       <r>  -11.5275    1.0000 </r>
       <r>  -11.4509    1.0000 </r>
       <r>  -11.4509    1.0000 </r>
       <r>    6.2293    0.0000 </r>
       <r>    6.2293    0.0000 </r>
       <r>    9.7477    0.0000 </r>
       <r>    9.7477    0.0000 </r>
       <r>   10.9318    0.0000 </r>
       <r>   10.9318    0.0000 </r>
       <r>   15.7844    0.0000 </r>
       <r>   15.7844    0.0000 </r>
       <r>   16.2203    0.0000 </r>
       <r>   16.2203    0.0000 </r>
      </set>
      <set comment="kpoint 17">
       <r>  -35.4258    1.0000 </r>
       <r>  -35.4258    1.0000 </r>
       <r>  -11.8032    1.0000 </r>
       <r>  -11.8032    1.0000 </r>
       <r>  -11.7043    1.0000 </r>
       <r>  -11.7043    1.0000 </r>
       <r>  -11.5151    1.0000 </r>
       <r>  -11.5151    1.0000 </r>
       <r>    6.9882    0.0000 </r>
       <r>    6.9882    0.0000 </r>
       <r>    9.1014    0.0000 </r>
       <r>    9.1014    0.0000 </r>
       <r>    9.7064    0.0000 </r>
       <r>    9.7064    0.0000 </r>
       <r>   16.2115    0.0000 </r>
       <r>   16.2115    0.0000 </r>
       <r>   17.5113    0.0000 </r>
       <r>   17.5113    0.0000 </r>
      </set>
      <set comment="kpoint 18">
       <r>  -35.4267    1.0000 </r>
       <r>  -35.4267    1.0000 </r>
       <r>  -11.6187    1.0000 </r>
       <r>  -11.6187    1.0000 </r>
       <r>  -11.3832    1.0000 </r>
       <r>  -11.3832    1.0000 </r>
       <r>  -11.2742    1.0000 </r>
       <r>  -11.2742    1.0000 </r>
       <r>    4.7730    0.0000 </r>
       <r>    4.7730    0.0000 </r>
       <r>    9.1504    0.0000 </r>
       <r>    9.1504    0.0000 </r>
       <r>   13.2705    0.0000 </r>
       <r>   13.2705    0.0000 </r>
       <r>   17.2401    0.0000 </r>
       <r>   17.2401    0.0000 </r>
       <r>   20.0489    0.0000 </r>
       <r>   20.0489    0.0000 </r>
      </set>
      <set comment="kpoint 19">
       <r>  -35.4408    1.0000 </r>
       <r>  -35.4408    1.0000 </r>
       <r>  -11.7120    1.0000 </r>
       <r>  -11.7120    1.0000 </r>
       <r>  -11.5521    1.0000 </r>
       <r>  -11.5521    1.0000 </r>
       <r>  -11.4990    1.0000 </r>
       <r>  -11.4990    1.0000 </r>
       <r>    6.2882    0.0000 </r>
       <r>    6.2882    0.0000 </r>
       <r>    6.3379    0.0000 </r>
       <r>    6.3379    0.0000 </r>
       <r>   17.0780    0.0000 </r>
       <r>   17.0780    0.0000 </r>
       <r>   17.0782    0.0000 </r>
       <r>   17.0782    0.0000 </r>
       <r>   19.0522    0.0000 </r>
       <r>   19.0522    0.0000 </r>
      </set>
      <set comment="kpoint 20">
       <r>  -35.4292    1.0000 </r>
       <r>  -35.4292    1.0000 </r>
       <r>  -11.6952    1.0000 </r>
       <r>  -11.6952    1.0000 </r>
       <r>  -11.4969    1.0000 </r>
       <r>  -11.4969    1.0000 </r>
       <r>  -11.4396    1.0000 </r>
       <r>  -11.4396    1.0000 </r>
       <r>    5.7336    0.0000 </r>
       <r>    5.7336    0.0000 </r>
       <r>    7.9176    0.0000 </r>
       <r>    7.9176    0.0000 </r>
       <r>   13.6632    0.0000 </r>
       <r>   13.6632    0.0000 </r>
       <r>   16.4744    0.0000 </r>
       <r>   16.4744    0.0000 </r>
       <r>   18.7980    0.0000 </r>
       <r>   18.7980    0.0000 </r>
      </set>
      <set comment="kpoint 21">
       <r>  -35.4128    1.0000 </r>
       <r>  -35.4128    1.0000 </r>
       <r>  -11.6157    1.0000 </r>
       <r>  -11.6157    1.0000 </r>
       <r>  -11.5275    1.0000 </r>
       <r>  -11.5275    1.0000 </r>
       <r>  -11.4509    1.0000 </r>
       <r>  -11.4509    1.0000 </r>
       <r>    6.2293    0.0000 </r>
       <r>    6.2293    0.0000 </r>
       <r>    9.7477    0.0000 </r>
       <r>    9.7477    0.0000 </r>
       <r>   10.9318    0.0000 </r>
       <r>   10.9318    0.0000 </r>
       <r>   15.7844    0.0000 </r>
       <r>   15.7844    0.0000 </r>
       <r>   16.2203    0.0000 </r>
       <r>   16.2203    0.0000 </r>
      </set>
      <set comment="kpoint 22">
       <r>  -35.3973    1.0000 </r>
       <r>  -35.3973    1.0000 </r>
       <r>  -11.6801    1.0000 </r>
       <r>  -11.6801    1.0000 </r>
       <r>  -11.3086    1.0000 </r>
       <r>  -11.3086    1.0000 </r>
       <r>  -11.2525    1.0000 </r>
       <r>  -11.2525    1.0000 </r>
       <r>    7.3214    0.0000 </r>
       <r>    7.3214    0.0000 </r>
       <r>    8.2308    0.0000 </r>
       <r>    8.2308    0.0000 </r>
       <r>   11.8279    0.0000 </r>
       <r>   11.8279    0.0000 </r>
       <r>   15.6144    0.0000 </r>
       <r>   15.6144    0.0000 </r>
       <r>   15.6270    0.0000 </r>
       <r>   15.6270    0.0000 </r>
      </set>
      <set comment="kpoint 23">
       <r>  -35.4128    1.0000 </r>
       <r>  -35.4128    1.0000 </r>
       <r>  -11.6157    1.0000 </r>
       <r>  -11.6157    1.0000 </r>
       <r>  -11.5275    1.0000 </r>
       <r>  -11.5275    1.0000 </r>
       <r>  -11.4509    1.0000 </r>
       <r>  -11.4509    1.0000 </r>
       <r>    6.2293    0.0000 </r>
       <r>    6.2293    0.0000 </r>
       <r>    9.7477    0.0000 </r>
       <r>    9.7477    0.0000 </r>
       <r>   10.9318    0.0000 </r>
       <r>   10.9318    0.0000 </r>
       <r>   15.7844    0.0000 </r>
       <r>   15.7844    0.0000 </r>
       <r>   16.2203    0.0000 </r>
       <r>   16.2203    0.0000 </r>
      </set>
      <set comment="kpoint 24">
       <r>  -35.4292    1.0000 </r>
       <r>  -35.4292    1.0000 </r>
       <r>  -11.6952    1.0000 </r>
       <r>  -11.6952    1.0000 </r>
       <r>  -11.4969    1.0000 </r>
       <r>  -11.4969    1.0000 </r>
       <r>  -11.4396    1.0000 </r>
       <r>  -11.4396    1.0000 </r>
       <r>    5.7336    0.0000 </r>
       <r>    5.7336    0.0000 </r>
       <r>    7.9176    0.0000 </r>
       <r>    7.9176    0.0000 </r>
       <r>   13.6632    0.0000 </r>
       <r>   13.6632    0.0000 </r>
       <r>   16.4744    0.0000 </r>
       <r>   16.4744    0.0000 </r>
       <r>   18.7980    0.0000 </r>
       <r>   18.7980    0.0000 </r>
      </set>
      <set comment="kpoint 25">
       <r>  -35.4378    1.0000 </r>
       <r>  -35.4378    1.0000 </r>
       <r>  -11.4580    1.0000 </r>
       <r>  -11.4580    1.0000 </r>
       <r>  -11.2567    1.0000 </r>
       <r>  -11.2567    1.0000 </r>
       <r>  -11.2028    1.0000 </r>
       <r>  -11.2028    1.0000 </r>
       <r>    3.3298    0.0000 </r>
       <r>    3.3298    0.0000 </r>
       <r>   10.0487    0.0000 </r>
       <r>   10.0487    0.0000 </r>
       <r>   17.4801    0.0000 </r>
       <r>   17.4801    0.0000 </r>
       <r>   17.4808    0.0000 </r>
       <r>   17.4808    0.0000 </r>
       <r>   19.2849    0.0000 </r>
       <r>   19.2849    0.0000 </r>
      </set>
      <set comment="kpoint 26">
       <r>  -35.4267    1.0000 </r>
       <r>  -35.4267    1.0000 </r>
       <r>  -11.6187    1.0000 </r>
       <r>  -11.6187    1.0000 </r>
       <r>  -11.3832    1.0000 </r>
       <r>  -11.3832    1.0000 </r>
       <r>  -11.2742    1.0000 </r>
       <r>  -11.2742    1.0000 </r>
       <r>    4.7730    0.0000 </r>
       <r>    4.7730    0.0000 </r>
       <r>    9.1504    0.0000 </r>
       <r>    9.1504    0.0000 </r>
       <r>   13.2705    0.0000 </r>
       <r>   13.2705    0.0000 </r>
       <r>   17.2401    0.0000 </r>
       <r>   17.2401    0.0000 </r>
       <r>   20.0489    0.0000 </r>
       <r>   20.0489    0.0000 </r>
      </set>
      <set comment="kpoint 27">
       <r>  -35.4258    1.0000 </r>
       <r>  -35.4258    1.0000 </r>
       <r>  -11.8032    1.0000 </r>
       <r>  -11.8032    1.0000 </r>
       <r>  -11.7043    1.0000 </r>
       <r>  -11.7043    1.0000 </r>
       <r>  -11.5151    1.0000 </r>
       <r>  -11.5151    1.0000 </r>
       <r>    6.9882    0.0000 </r>
       <r>    6.9882    0.0000 </r>
       <r>    9.1014    0.0000 </r>
       <r>    9.1014    0.0000 </r>
       <r>    9.7064    0.0000 </r>
       <r>    9.7064    0.0000 </r>
       <r>   16.2115    0.0000 </r>
       <r>   16.2115    0.0000 </r>
       <r>   17.5113    0.0000 </r>
       <r>   17.5113    0.0000 </r>
      </set>
      <set comment="kpoint 28">
       <r>  -35.4128    1.0000 </r>
       <r>  -35.4128    1.0000 </r>
       <r>  -11.6157    1.0000 </r>
       <r>  -11.6157    1.0000 </r>
       <r>  -11.5275    1.0000 </r>
       <r>  -11.5275    1.0000 </r>
       <r>  -11.4509    1.0000 </r>
       <r>  -11.4509    1.0000 </r>
       <r>    6.2293    0.0000 </r>
       <r>    6.2293    0.0000 </r>
       <r>    9.7477    0.0000 </r>
       <r>    9.7477    0.0000 </r>
       <r>   10.9318    0.0000 </r>
       <r>   10.9318    0.0000 </r>
       <r>   15.7844    0.0000 </r>
       <r>   15.7844    0.0000 </r>
       <r>   16.2203    0.0000 </r>
       <r>   16.2203    0.0000 </r>
      </set>
      <set comment="kpoint 29">
       <r>  -35.4364    1.0000 </r>
       <r>  -35.4364    1.0000 </r>
       <r>  -11.6759    1.0000 </r>
       <r>  -11.6759    1.0000 </r>
       <r>  -11.5168    1.0000 </r>
       <r>  -11.5168    1.0000 </r>
       <r>  -11.4659    1.0000 </r>
       <r>  -11.4659    1.0000 </r>
       <r>    4.1022    0.0000 </r>
       <r>    4.1022    0.0000 </r>
       <r>   12.1061    0.0000 </r>
       <r>   12.1061    0.0000 </r>
       <r>   12.6535    0.0000 </r>
       <r>   12.6535    0.0000 </r>
       <r>   15.8877    0.0000 </r>
       <r>   15.8877    0.0000 </r>
       <r>   15.8985    0.0000 </r>
       <r>   15.8985    0.0000 </r>
      </set>
      <set comment="kpoint 30">
       <r>  -35.4590    1.0000 </r>
       <r>  -35.4590    1.0000 </r>
       <r>  -11.7030    1.0000 </r>
       <r>  -11.7030    1.0000 </r>
       <r>  -11.5244    1.0000 </r>
       <r>  -11.5244    1.0000 </r>
       <r>  -11.4652    1.0000 </r>
       <r>  -11.4652    1.0000 </r>
       <r>    3.0474    0.0000 </r>
       <r>    3.0474    0.0000 </r>
       <r>   11.6657    0.0000 </r>
       <r>   11.6657    0.0000 </r>
       <r>   14.7912    0.0000 </r>
       <r>   14.7912    0.0000 </r>
       <r>   16.5132    0.0000 </r>
       <r>   16.5132    0.0000 </r>
       <r>   18.2216    0.0000 </r>
       <r>   18.2216    0.0000 </r>
      </set>
      <set comment="kpoint 31">
       <r>  -35.5020    1.0000 </r>
       <r>  -35.5020    1.0000 </r>
       <r>  -11.6928    1.0000 </r>
       <r>  -11.6928    1.0000 </r>
       <r>  -11.4349    1.0000 </r>
       <r>  -11.4349    1.0000 </r>
       <r>  -11.3782    1.0000 </r>
       <r>  -11.3782    1.0000 </r>
       <r>    1.1489    0.0000 </r>
       <r>    1.1489    0.0000 </r>
       <r>   14.3542    0.0000 </r>
       <r>   14.3542    0.0000 </r>
       <r>   18.2028    0.0000 </r>
       <r>   18.2028    0.0000 </r>
       <r>   18.2045    0.0000 </r>
       <r>   18.2045    0.0000 </r>
       <r>   20.4582    0.0000 </r>
       <r>   20.4582    0.0000 </r>
      </set>
      <set comment="kpoint 32">
       <r>  -35.4696    1.0000 </r>
       <r>  -35.4696    1.0000 </r>
       <r>  -11.6148    1.0000 </r>
       <r>  -11.6148    1.0000 </r>
       <r>  -11.5130    1.0000 </r>
       <r>  -11.5130    1.0000 </r>
       <r>  -11.3963    1.0000 </r>
       <r>  -11.3963    1.0000 </r>
       <r>    2.3866    0.0000 </r>
       <r>    2.3866    0.0000 </r>
       <r>   12.6298    0.0000 </r>
       <r>   12.6298    0.0000 </r>
       <r>   14.3432    0.0000 </r>
       <r>   14.3432    0.0000 </r>
       <r>   18.9456    0.0000 </r>
       <r>   18.9456    0.0000 </r>
       <r>   20.0978    0.0000 </r>
       <r>   20.0978    0.0000 </r>
      </set>
      <set comment="kpoint 33">
       <r>  -35.4267    1.0000 </r>
       <r>  -35.4267    1.0000 </r>
       <r>  -11.6187    1.0000 </r>
       <r>  -11.6187    1.0000 </r>
       <r>  -11.3832    1.0000 </r>
       <r>  -11.3832    1.0000 </r>
       <r>  -11.2742    1.0000 </r>
       <r>  -11.2742    1.0000 </r>
       <r>    4.7730    0.0000 </r>
       <r>    4.7730    0.0000 </r>
       <r>    9.1504    0.0000 </r>
       <r>    9.1504    0.0000 </r>
       <r>   13.2705    0.0000 </r>
       <r>   13.2705    0.0000 </r>
       <r>   17.2401    0.0000 </r>
       <r>   17.2401    0.0000 </r>
       <r>   20.0489    0.0000 </r>
       <r>   20.0489    0.0000 </r>
      </set>
      <set comment="kpoint 34">
       <r>  -35.4292    1.0000 </r>
       <r>  -35.4292    1.0000 </r>
       <r>  -11.6952    1.0000 </r>
       <r>  -11.6952    1.0000 </r>
       <r>  -11.4969    1.0000 </r>
       <r>  -11.4969    1.0000 </r>
       <r>  -11.4396    1.0000 </r>
       <r>  -11.4396    1.0000 </r>
       <r>    5.7337    0.0000 </r>
       <r>    5.7337    0.0000 </r>
       <r>    7.9176    0.0000 </r>
       <r>    7.9176    0.0000 </r>
       <r>   13.6632    0.0000 </r>
       <r>   13.6632    0.0000 </r>
       <r>   16.4744    0.0000 </r>
       <r>   16.4744    0.0000 </r>
       <r>   18.7980    0.0000 </r>
       <r>   18.7980    0.0000 </r>
      </set>
      <set comment="kpoint 35">
       <r>  -35.4590    1.0000 </r>
       <r>  -35.4590    1.0000 </r>
       <r>  -11.7030    1.0000 </r>
       <r>  -11.7030    1.0000 </r>
       <r>  -11.5244    1.0000 </r>
       <r>  -11.5244    1.0000 </r>
       <r>  -11.4652    1.0000 </r>
       <r>  -11.4652    1.0000 </r>
       <r>    3.0474    0.0000 </r>
       <r>    3.0474    0.0000 </r>
       <r>   11.6657    0.0000 </r>
       <r>   11.6657    0.0000 </r>
       <r>   14.7912    0.0000 </r>
       <r>   14.7912    0.0000 </r>
       <r>   16.5132    0.0000 </r>
       <r>   16.5132    0.0000 </r>
       <r>   18.2216    0.0000 </r>
       <r>   18.2216    0.0000 </r>
      </set>
      <set comment="kpoint 36">
       <r>  -35.4795    1.0000 </r>
       <r>  -35.4795    1.0000 </r>
       <r>  -11.5077    1.0000 </r>
       <r>  -11.5077    1.0000 </r>
       <r>  -11.3162    1.0000 </r>
       <r>  -11.3162    1.0000 </r>
       <r>  -11.2636    1.0000 </r>
       <r>  -11.2636    1.0000 </r>
       <r>    1.3993    0.0000 </r>
       <r>    1.3993    0.0000 </r>
       <r>   15.1264    0.0000 </r>
       <r>   15.1264    0.0000 </r>
       <r>   17.1078    0.0000 </r>
       <r>   17.1078    0.0000 </r>
       <r>   17.1133    0.0000 </r>
       <r>   17.1133    0.0000 </r>
       <r>   17.5058    0.0000 </r>
       <r>   17.5058    0.0000 </r>
      </set>
      <set comment="kpoint 37">
       <r>  -35.5020    1.0000 </r>
       <r>  -35.5020    1.0000 </r>
       <r>  -11.6928    1.0000 </r>
       <r>  -11.6928    1.0000 </r>
       <r>  -11.4349    1.0000 </r>
       <r>  -11.4349    1.0000 </r>
       <r>  -11.3782    1.0000 </r>
       <r>  -11.3782    1.0000 </r>
       <r>    1.1489    0.0000 </r>
       <r>    1.1489    0.0000 </r>
       <r>   14.3543    0.0000 </r>
       <r>   14.3543    0.0000 </r>
       <r>   18.2028    0.0000 </r>
       <r>   18.2028    0.0000 </r>
       <r>   18.2044    0.0000 </r>
       <r>   18.2044    0.0000 </r>
       <r>   20.4582    0.0000 </r>
       <r>   20.4582    0.0000 </r>
      </set>
      <set comment="kpoint 38">
       <r>  -35.4795    1.0000 </r>
       <r>  -35.4795    1.0000 </r>
       <r>  -11.5077    1.0000 </r>
       <r>  -11.5077    1.0000 </r>
       <r>  -11.3162    1.0000 </r>
       <r>  -11.3162    1.0000 </r>
       <r>  -11.2636    1.0000 </r>
       <r>  -11.2636    1.0000 </r>
       <r>    1.3993    0.0000 </r>
       <r>    1.3993    0.0000 </r>
       <r>   15.1265    0.0000 </r>
       <r>   15.1265    0.0000 </r>
       <r>   17.1077    0.0000 </r>
       <r>   17.1077    0.0000 </r>
       <r>   17.1133    0.0000 </r>
       <r>   17.1133    0.0000 </r>
       <r>   17.5058    0.0000 </r>
       <r>   17.5058    0.0000 </r>
      </set>
      <set comment="kpoint 39">
       <r>  -35.4590    1.0000 </r>
       <r>  -35.4590    1.0000 </r>
       <r>  -11.7030    1.0000 </r>
       <r>  -11.7030    1.0000 </r>
       <r>  -11.5244    1.0000 </r>
       <r>  -11.5244    1.0000 </r>
       <r>  -11.4652    1.0000 </r>
       <r>  -11.4652    1.0000 </r>
       <r>    3.0474    0.0000 </r>
       <r>    3.0474    0.0000 </r>
       <r>   11.6657    0.0000 </r>
       <r>   11.6657    0.0000 </r>
       <r>   14.7912    0.0000 </r>
       <r>   14.7912    0.0000 </r>
       <r>   16.5132    0.0000 </r>
       <r>   16.5132    0.0000 </r>
       <r>   18.2216    0.0000 </r>
       <r>   18.2216    0.0000 </r>
      </set>
      <set comment="kpoint 40">
       <r>  -35.4292    1.0000 </r>
       <r>  -35.4292    1.0000 </r>
       <r>  -11.6952    1.0000 </r>
       <r>  -11.6952    1.0000 </r>
       <r>  -11.4969    1.0000 </r>
       <r>  -11.4969    1.0000 </r>
       <r>  -11.4396    1.0000 </r>
       <r>  -11.4396    1.0000 </r>
       <r>    5.7337    0.0000 </r>
       <r>    5.7337    0.0000 </r>
       <r>    7.9176    0.0000 </r>
       <r>    7.9176    0.0000 </r>
       <r>   13.6632    0.0000 </r>
       <r>   13.6632    0.0000 </r>
       <r>   16.4745    0.0000 </r>
       <r>   16.4745    0.0000 </r>
       <r>   18.7980    0.0000 </r>
       <r>   18.7980    0.0000 </r>
      </set>
      <set comment="kpoint 41">
       <r>  -35.4267    1.0000 </r>
       <r>  -35.4267    1.0000 </r>
       <r>  -11.6187    1.0000 </r>
       <r>  -11.6187    1.0000 </r>
       <r>  -11.3832    1.0000 </r>
       <r>  -11.3832    1.0000 </r>
       <r>  -11.2742    1.0000 </r>
       <r>  -11.2742    1.0000 </r>
       <r>    4.7730    0.0000 </r>
       <r>    4.7730    0.0000 </r>
       <r>    9.1504    0.0000 </r>
       <r>    9.1504    0.0000 </r>
       <r>   13.2705    0.0000 </r>
       <r>   13.2705    0.0000 </r>
       <r>   17.2402    0.0000 </r>
       <r>   17.2402    0.0000 </r>
       <r>   20.0489    0.0000 </r>
       <r>   20.0489    0.0000 </r>
      </set>
      <set comment="kpoint 42">
       <r>  -35.4696    1.0000 </r>
       <r>  -35.4696    1.0000 </r>
       <r>  -11.6148    1.0000 </r>
       <r>  -11.6148    1.0000 </r>
       <r>  -11.5130    1.0000 </r>
       <r>  -11.5130    1.0000 </r>
       <r>  -11.3963    1.0000 </r>
       <r>  -11.3963    1.0000 </r>
       <r>    2.3865    0.0000 </r>
       <r>    2.3865    0.0000 </r>
       <r>   12.6298    0.0000 </r>
       <r>   12.6298    0.0000 </r>
       <r>   14.3433    0.0000 </r>
       <r>   14.3433    0.0000 </r>
       <r>   18.9456    0.0000 </r>
       <r>   18.9456    0.0000 </r>
       <r>   20.0977    0.0000 </r>
       <r>   20.0977    0.0000 </r>
      </set>
      <set comment="kpoint 43">
       <r>  -35.4795    1.0000 </r>
       <r>  -35.4795    1.0000 </r>
       <r>  -11.5078    1.0000 </r>
       <r>  -11.5078    1.0000 </r>
       <r>  -11.3162    1.0000 </r>
       <r>  -11.3162    1.0000 </r>
       <r>  -11.2636    1.0000 </r>
       <r>  -11.2636    1.0000 </r>
       <r>    1.3993    0.0000 </r>
       <r>    1.3993    0.0000 </r>
       <r>   15.1264    0.0000 </r>
       <r>   15.1264    0.0000 </r>
       <r>   17.1078    0.0000 </r>
       <r>   17.1078    0.0000 </r>
       <r>   17.1133    0.0000 </r>
       <r>   17.1133    0.0000 </r>
       <r>   17.5058    0.0000 </r>
       <r>   17.5058    0.0000 </r>
      </set>
      <set comment="kpoint 44">
       <r>  -35.5020    1.0000 </r>
       <r>  -35.5020    1.0000 </r>
       <r>  -11.6928    1.0000 </r>
       <r>  -11.6928    1.0000 </r>
       <r>  -11.4349    1.0000 </r>
       <r>  -11.4349    1.0000 </r>
       <r>  -11.3782    1.0000 </r>
       <r>  -11.3782    1.0000 </r>
       <r>    1.1489    0.0000 </r>
       <r>    1.1489    0.0000 </r>
       <r>   14.3543    0.0000 </r>
       <r>   14.3543    0.0000 </r>
       <r>   18.2028    0.0000 </r>
       <r>   18.2028    0.0000 </r>
       <r>   18.2045    0.0000 </r>
       <r>   18.2045    0.0000 </r>
       <r>   20.4581    0.0000 </r>
       <r>   20.4581    0.0000 </r>
      </set>
      <set comment="kpoint 45">
       <r>  -35.4696    1.0000 </r>
       <r>  -35.4696    1.0000 </r>
       <r>  -11.6148    1.0000 </r>
       <r>  -11.6148    1.0000 </r>
       <r>  -11.5130    1.0000 </r>
       <r>  -11.5130    1.0000 </r>
       <r>  -11.3963    1.0000 </r>
       <r>  -11.3963    1.0000 </r>
       <r>    2.3866    0.0000 </r>
       <r>    2.3866    0.0000 </r>
       <r>   12.6298    0.0000 </r>
       <r>   12.6298    0.0000 </r>
       <r>   14.3432    0.0000 </r>
       <r>   14.3432    0.0000 </r>
       <r>   18.9456    0.0000 </r>
       <r>   18.9456    0.0000 </r>
       <r>   20.0978    0.0000 </r>
       <r>   20.0978    0.0000 </r>
      </set>
      <set comment="kpoint 46">
       <r>  -35.4267    1.0000 </r>
       <r>  -35.4267    1.0000 </r>
       <r>  -11.6187    1.0000 </r>
       <r>  -11.6187    1.0000 </r>
       <r>  -11.3832    1.0000 </r>
       <r>  -11.3832    1.0000 </r>
       <r>  -11.2742    1.0000 </r>
       <r>  -11.2742    1.0000 </r>
       <r>    4.7730    0.0000 </r>
       <r>    4.7730    0.0000 </r>
       <r>    9.1504    0.0000 </r>
       <r>    9.1504    0.0000 </r>
       <r>   13.2705    0.0000 </r>
       <r>   13.2705    0.0000 </r>
       <r>   17.2402    0.0000 </r>
       <r>   17.2402    0.0000 </r>
       <r>   20.0489    0.0000 </r>
       <r>   20.0489    0.0000 </r>
      </set>
      <set comment="kpoint 47">
       <r>  -35.4292    1.0000 </r>
       <r>  -35.4292    1.0000 </r>
       <r>  -11.6952    1.0000 </r>
       <r>  -11.6952    1.0000 </r>
       <r>  -11.4969    1.0000 </r>
       <r>  -11.4969    1.0000 </r>
       <r>  -11.4396    1.0000 </r>
       <r>  -11.4396    1.0000 </r>
       <r>    5.7337    0.0000 </r>
       <r>    5.7337    0.0000 </r>
       <r>    7.9176    0.0000 </r>
       <r>    7.9176    0.0000 </r>
       <r>   13.6632    0.0000 </r>
       <r>   13.6632    0.0000 </r>
       <r>   16.4745    0.0000 </r>
       <r>   16.4745    0.0000 </r>
       <r>   18.7980    0.0000 </r>
       <r>   18.7980    0.0000 </r>
      </set>
      <set comment="kpoint 48">
       <r>  -35.4590    1.0000 </r>
       <r>  -35.4590    1.0000 </r>
       <r>  -11.7030    1.0000 </r>
       <r>  -11.7030    1.0000 </r>
       <r>  -11.5244    1.0000 </r>
       <r>  -11.5244    1.0000 </r>
       <r>  -11.4652    1.0000 </r>
       <r>  -11.4652    1.0000 </r>
       <r>    3.0474    0.0000 </r>
       <r>    3.0474    0.0000 </r>
       <r>   11.6657    0.0000 </r>
       <r>   11.6657    0.0000 </r>
       <r>   14.7912    0.0000 </r>
       <r>   14.7912    0.0000 </r>
       <r>   16.5132    0.0000 </r>
       <r>   16.5132    0.0000 </r>
       <r>   18.2216    0.0000 </r>
       <r>   18.2216    0.0000 </r>
      </set>
      <set comment="kpoint 49">
       <r>  -35.4590    1.0000 </r>
       <r>  -35.4590    1.0000 </r>
       <r>  -11.7030    1.0000 </r>
       <r>  -11.7030    1.0000 </r>
       <r>  -11.5244    1.0000 </r>
       <r>  -11.5244    1.0000 </r>
       <r>  -11.4652    1.0000 </r>
       <r>  -11.4652    1.0000 </r>
       <r>    3.0474    0.0000 </r>
       <r>    3.0474    0.0000 </r>
       <r>   11.6657    0.0000 </r>
       <r>   11.6657    0.0000 </r>
       <r>   14.7912    0.0000 </r>
       <r>   14.7912    0.0000 </r>
       <r>   16.5131    0.0000 </r>
       <r>   16.5131    0.0000 </r>
       <r>   18.2216    0.0000 </r>
       <r>   18.2216    0.0000 </r>
      </set>
      <set comment="kpoint 50">
       <r>  -35.4696    1.0000 </r>
       <r>  -35.4696    1.0000 </r>
       <r>  -11.6148    1.0000 </r>
       <r>  -11.6148    1.0000 </r>
       <r>  -11.5130    1.0000 </r>
       <r>  -11.5130    1.0000 </r>
       <r>  -11.3963    1.0000 </r>
       <r>  -11.3963    1.0000 </r>
       <r>    2.3866    0.0000 </r>
       <r>    2.3866    0.0000 </r>
       <r>   12.6298    0.0000 </r>
       <r>   12.6298    0.0000 </r>
       <r>   14.3433    0.0000 </r>
       <r>   14.3433    0.0000 </r>
       <r>   18.9456    0.0000 </r>
       <r>   18.9456    0.0000 </r>
       <r>   20.0978    0.0000 </r>
       <r>   20.0978    0.0000 </r>
      </set>
      <set comment="kpoint 51">
       <r>  -35.4590    1.0000 </r>
       <r>  -35.4590    1.0000 </r>
       <r>  -11.7030    1.0000 </r>
       <r>  -11.7030    1.0000 </r>
       <r>  -11.5244    1.0000 </r>
       <r>  -11.5244    1.0000 </r>
       <r>  -11.4652    1.0000 </r>
       <r>  -11.4652    1.0000 </r>
       <r>    3.0474    0.0000 </r>
       <r>    3.0474    0.0000 </r>
       <r>   11.6657    0.0000 </r>
       <r>   11.6657    0.0000 </r>
       <r>   14.7912    0.0000 </r>
       <r>   14.7912    0.0000 </r>
       <r>   16.5132    0.0000 </r>
       <r>   16.5132    0.0000 </r>
       <r>   18.2216    0.0000 </r>
       <r>   18.2216    0.0000 </r>
      </set>
      <set comment="kpoint 52">
       <r>  -35.4232    1.0000 </r>
       <r>  -35.4232    1.0000 </r>
       <r>  -11.5465    1.0000 </r>
       <r>  -11.5465    1.0000 </r>
       <r>  -11.4698    1.0000 </r>
       <r>  -11.4698    1.0000 </r>
       <r>  -11.4166    1.0000 </r>
       <r>  -11.4166    1.0000 </r>
       <r>    4.9732    0.0000 </r>
       <r>    4.9732    0.0000 </r>
       <r>   10.7479    0.0000 </r>
       <r>   10.7479    0.0000 </r>
       <r>   11.4764    0.0000 </r>
       <r>   11.4764    0.0000 </r>
       <r>   15.2214    0.0000 </r>
       <r>   15.2214    0.0000 </r>
       <r>   19.4747    0.0000 </r>
       <r>   19.4747    0.0000 </r>
      </set>
      <set comment="kpoint 53">
       <r>  -35.4167    1.0000 </r>
       <r>  -35.4167    1.0000 </r>
       <r>  -11.7055    1.0000 </r>
       <r>  -11.7055    1.0000 </r>
[...]
       <r>     5.7752     0.0000     0.0000 </r>
       <r>     5.9823     0.0000     0.0000 </r>
       <r>     6.1893     0.0000     0.0000 </r>
       <r>     6.3963     0.0000     0.0000 </r>
       <r>     6.6034     0.0000     0.0000 </r>
       <r>     6.8104     0.0000     0.0000 </r>
       <r>     7.0175     0.0000     0.0000 </r>
       <r>     7.2245     0.0000     0.0000 </r>
       <r>     7.4316     0.0000     0.0000 </r>
       <r>     7.6386     0.0000     0.0000 </r>
       <r>     7.8457     0.0000     0.0000 </r>
       <r>     8.0527     0.0000     0.0000 </r>
       <r>     8.2597     0.0000     0.0000 </r>
       <r>     8.4668     0.0000     0.0000 </r>
       <r>     8.6738     0.0000     0.0000 </r>
       <r>     8.8809     0.0000     0.0000 </r>
       <r>     9.0879     0.0000     0.0000 </r>
       <r>     9.2950     0.0000     0.0000 </r>
       <r>     9.5020     0.0000     0.0000 </r>
       <r>     9.7091     0.0000     0.0000 </r>
       <r>     9.9161     0.0000     0.0000 </r>
       <r>    10.1231     0.0000     0.0000 </r>
       <r>    10.3302     0.0000     0.0000 </r>
       <r>    10.5372     0.0000     0.0000 </r>
       <r>    10.7443     0.0000     0.0000 </r>
       <r>    10.9513     0.0000     0.0000 </r>
       <r>    11.1584     0.0000     0.0000 </r>
       <r>    11.3654     0.0000     0.0000 </r>
       <r>    11.5725     0.0000     0.0000 </r>
       <r>    11.7795     0.0000     0.0000 </r>
       <r>    11.9865     0.0000     0.0000 </r>
       <r>    12.1936     0.0000     0.0000 </r>
       <r>    12.4006     0.0000     0.0000 </r>
       <r>    12.6077     0.0000     0.0000 </r>
       <r>    12.8147     0.0000     0.0000 </r>
       <r>    13.0218     0.0000     0.0000 </r>
       <r>    13.2288     0.0000     0.0000 </r>
       <r>    13.4359     0.0000     0.0000 </r>
       <r>    13.6429     0.0000     0.0000 </r>
       <r>    13.8500     0.0000     0.0000 </r>
       <r>    14.0570     0.0000     0.0000 </r>
       <r>    14.2640     0.0000     0.0000 </r>
       <r>    14.4711     0.0000     0.0000 </r>
       <r>    14.6781     0.0000     0.0000 </r>
       <r>    14.8852     0.0000     0.0000 </r>
       <r>    15.0922     0.0000     0.0000 </r>
       <r>    15.2993     0.0000     0.0000 </r>
       <r>    15.5063     0.0000     0.0000 </r>
       <r>    15.7134     0.0000     0.0000 </r>
       <r>    15.9204     0.0000     0.0000 </r>
       <r>    16.1274     0.0000     0.0000 </r>
       <r>    16.3345     0.0000     0.0000 </r>
       <r>    16.5415     0.0000     0.0000 </r>
       <r>    16.7486     0.0000     0.0000 </r>
       <r>    16.9556     0.0000     0.0000 </r>
       <r>    17.1627     0.0000     0.0000 </r>
       <r>    17.3697     0.0000     0.0000 </r>
       <r>    17.5768     0.0000     0.0000 </r>
       <r>    17.7838     0.0000     0.0000 </r>
       <r>    17.9908     0.0000     0.0000 </r>
       <r>    18.1979     0.0000     0.0000 </r>
       <r>    18.4049     0.0000     0.0000 </r>
       <r>    18.6120     0.0000     0.0000 </r>
       <r>    18.8190     0.0000     0.0000 </r>
       <r>    19.0261     0.0000     0.0000 </r>
       <r>    19.2331     0.0000     0.0000 </r>
       <r>    19.4402     0.0000     0.0000 </r>
       <r>    19.6472     0.0000     0.0000 </r>
       <r>    19.8542     0.0000     0.0000 </r>
       <r>    20.0613     0.0000     0.0000 </r>
       <r>    20.2683     0.0000     0.0000 </r>
       <r>    20.4754     0.0000     0.0000 </r>
       <r>    20.6824     0.0000     0.0000 </r>
       <r>    20.8895     0.0000     0.0000 </r>
       <r>    21.0965     0.0000     0.0000 </r>
       <r>    21.3036     0.0000     0.0000 </r>
       <r>    21.5106     0.0000     0.0000 </r>
       <r>    21.7177     0.0000     0.0000 </r>
       <r>    21.9247     0.0000     0.0000 </r>
       <r>    22.1317     0.0000     0.0000 </r>
       <r>    22.3388     0.0000     0.0000 </r>
       <r>    22.5458     0.0000     0.0000 </r>
       <r>    22.7529     0.0000     0.0000 </r>
       <r>    22.9599     0.0000     0.0000 </r>
       <r>    23.1670     0.0000     0.0000 </r>
       <r>    23.3740     0.0000     0.0000 </r>
       <r>    23.5811     0.0000     0.0000 </r>
       <r>    23.7881     0.0000     0.0000 </r>
      </set>
      <set comment="spin 4">
       <r>   -38.3253     0.0000     0.0000 </r>
       <r>   -38.1183     0.0000     0.0000 </r>
       <r>   -37.9112     0.0000     0.0000 </r>
       <r>   -37.7042     0.0000     0.0000 </r>
       <r>   -37.4971     0.0000     0.0000 </r>
       <r>   -37.2901     0.0000     0.0000 </r>
       <r>   -37.0831     0.0000     0.0000 </r>
       <r>   -36.8760     0.0000     0.0000 </r>
       <r>   -36.6690     0.0000     0.0000 </r>
       <r>   -36.4619     0.0000     0.0000 </r>
       <r>   -36.2549     0.0000     0.0000 </r>
       <r>   -36.0478     0.0000     0.0000 </r>
       <r>   -35.8408     0.0000     0.0000 </r>
       <r>   -35.6337     0.0000     0.0000 </r>
       <r>   -35.4267     0.0000     0.0000 </r>
       <r>   -35.2197     0.0000     0.0000 </r>
       <r>   -35.0126     0.0000     0.0000 </r>
       <r>   -34.8056     0.0000     0.0000 </r>
       <r>   -34.5985     0.0000     0.0000 </r>
       <r>   -34.3915     0.0000     0.0000 </r>
       <r>   -34.1844     0.0000     0.0000 </r>
       <r>   -33.9774     0.0000     0.0000 </r>
       <r>   -33.7703     0.0000     0.0000 </r>
       <r>   -33.5633     0.0000     0.0000 </r>
       <r>   -33.3563     0.0000     0.0000 </r>
       <r>   -33.1492     0.0000     0.0000 </r>
       <r>   -32.9422     0.0000     0.0000 </r>
       <r>   -32.7351     0.0000     0.0000 </r>
       <r>   -32.5281     0.0000     0.0000 </r>
       <r>   -32.3210     0.0000     0.0000 </r>
       <r>   -32.1140     0.0000     0.0000 </r>
       <r>   -31.9069     0.0000     0.0000 </r>
       <r>   -31.6999     0.0000     0.0000 </r>
       <r>   -31.4928     0.0000     0.0000 </r>
       <r>   -31.2858     0.0000     0.0000 </r>
       <r>   -31.0788     0.0000     0.0000 </r>
       <r>   -30.8717     0.0000     0.0000 </r>
       <r>   -30.6647     0.0000     0.0000 </r>
       <r>   -30.4576     0.0000     0.0000 </r>
       <r>   -30.2506     0.0000     0.0000 </r>
       <r>   -30.0435     0.0000     0.0000 </r>
       <r>   -29.8365     0.0000     0.0000 </r>
       <r>   -29.6294     0.0000     0.0000 </r>
       <r>   -29.4224     0.0000     0.0000 </r>
       <r>   -29.2154     0.0000     0.0000 </r>
       <r>   -29.0083     0.0000     0.0000 </r>
       <r>   -28.8013     0.0000     0.0000 </r>
       <r>   -28.5942     0.0000     0.0000 </r>
       <r>   -28.3872     0.0000     0.0000 </r>
       <r>   -28.1801     0.0000     0.0000 </r>
       <r>   -27.9731     0.0000     0.0000 </r>
       <r>   -27.7660     0.0000     0.0000 </r>
       <r>   -27.5590     0.0000     0.0000 </r>
       <r>   -27.3520     0.0000     0.0000 </r>
       <r>   -27.1449     0.0000     0.0000 </r>
       <r>   -26.9379     0.0000     0.0000 </r>
       <r>   -26.7308     0.0000     0.0000 </r>
       <r>   -26.5238     0.0000     0.0000 </r>
       <r>   -26.3167     0.0000     0.0000 </r>
       <r>   -26.1097     0.0000     0.0000 </r>
       <r>   -25.9026     0.0000     0.0000 </r>
       <r>   -25.6956     0.0000     0.0000 </r>
       <r>   -25.4886     0.0000     0.0000 </r>
       <r>   -25.2815     0.0000     0.0000 </r>
       <r>   -25.0745     0.0000     0.0000 </r>
       <r>   -24.8674     0.0000     0.0000 </r>
       <r>   -24.6604     0.0000     0.0000 </r>
       <r>   -24.4533     0.0000     0.0000 </r>
       <r>   -24.2463     0.0000     0.0000 </r>
       <r>   -24.0392     0.0000     0.0000 </r>
       <r>   -23.8322     0.0000     0.0000 </r>
       <r>   -23.6251     0.0000     0.0000 </r>
       <r>   -23.4181     0.0000     0.0000 </r>
       <r>   -23.2111     0.0000     0.0000 </r>
       <r>   -23.0040     0.0000     0.0000 </r>
       <r>   -22.7970     0.0000     0.0000 </r>
       <r>   -22.5899     0.0000     0.0000 </r>
       <r>   -22.3829     0.0000     0.0000 </r>
       <r>   -22.1758     0.0000     0.0000 </r>
       <r>   -21.9688     0.0000     0.0000 </r>
       <r>   -21.7617     0.0000     0.0000 </r>
       <r>   -21.5547     0.0000     0.0000 </r>
       <r>   -21.3477     0.0000     0.0000 </r>
       <r>   -21.1406     0.0000     0.0000 </r>
       <r>   -20.9336     0.0000     0.0000 </r>
       <r>   -20.7265     0.0000     0.0000 </r>
       <r>   -20.5195     0.0000     0.0000 </r>
       <r>   -20.3124     0.0000     0.0000 </r>
       <r>   -20.1054     0.0000     0.0000 </r>
       <r>   -19.8983     0.0000     0.0000 </r>
       <r>   -19.6913     0.0000     0.0000 </r>
       <r>   -19.4843     0.0000     0.0000 </r>
       <r>   -19.2772     0.0000     0.0000 </r>
       <r>   -19.0702     0.0000     0.0000 </r>
       <r>   -18.8631     0.0000     0.0000 </r>
       <r>   -18.6561     0.0000     0.0000 </r>
       <r>   -18.4490     0.0000     0.0000 </r>
       <r>   -18.2420     0.0000     0.0000 </r>
       <r>   -18.0349     0.0000     0.0000 </r>
       <r>   -17.8279     0.0000     0.0000 </r>
       <r>   -17.6208     0.0000     0.0000 </r>
       <r>   -17.4138     0.0000     0.0000 </r>
       <r>   -17.2068     0.0000     0.0000 </r>
       <r>   -16.9997     0.0000     0.0000 </r>
       <r>   -16.7927     0.0000     0.0000 </r>
       <r>   -16.5856     0.0000     0.0000 </r>
       <r>   -16.3786     0.0000     0.0000 </r>
       <r>   -16.1715     0.0000     0.0000 </r>
       <r>   -15.9645     0.0000     0.0000 </r>
       <r>   -15.7574     0.0000     0.0000 </r>
       <r>   -15.5504     0.0000     0.0000 </r>
       <r>   -15.3434     0.0000     0.0000 </r>
       <r>   -15.1363     0.0000     0.0000 </r>
       <r>   -14.9293     0.0000     0.0000 </r>
       <r>   -14.7222     0.0000     0.0000 </r>
       <r>   -14.5152     0.0000     0.0000 </r>
       <r>   -14.3081     0.0000     0.0000 </r>
       <r>   -14.1011     0.0000     0.0000 </r>
       <r>   -13.8940     0.0000     0.0000 </r>
       <r>   -13.6870     0.0000     0.0000 </r>
       <r>   -13.4800     0.0000     0.0000 </r>
       <r>   -13.2729     0.0000     0.0000 </r>
       <r>   -13.0659     0.0000     0.0000 </r>
       <r>   -12.8588     0.0000     0.0000 </r>
       <r>   -12.6518     0.0000     0.0000 </r>
       <r>   -12.4447     0.0000     0.0000 </r>
       <r>   -12.2377     0.0000     0.0000 </r>
       <r>   -12.0306     0.0000     0.0000 </r>
       <r>   -11.8236     0.0000     0.0000 </r>
       <r>   -11.6166     0.0000     0.0000 </r>
       <r>   -11.4095     0.0000     0.0000 </r>
       <r>   -11.2025     0.0000     0.0000 </r>
       <r>   -10.9954     0.0000     0.0000 </r>
       <r>   -10.7884     0.0000     0.0000 </r>
       <r>   -10.5813     0.0000     0.0000 </r>
       <r>   -10.3743     0.0000     0.0000 </r>
       <r>   -10.1672     0.0000     0.0000 </r>
       <r>    -9.9602     0.0000     0.0000 </r>
       <r>    -9.7531     0.0000     0.0000 </r>
       <r>    -9.5461     0.0000     0.0000 </r>
       <r>    -9.3391     0.0000     0.0000 </r>
       <r>    -9.1320     0.0000     0.0000 </r>
       <r>    -8.9250     0.0000     0.0000 </r>
       <r>    -8.7179     0.0000     0.0000 </r>
       <r>    -8.5109     0.0000     0.0000 </r>
       <r>    -8.3038     0.0000     0.0000 </r>
       <r>    -8.0968     0.0000     0.0000 </r>
       <r>    -7.8897     0.0000     0.0000 </r>
       <r>    -7.6827     0.0000     0.0000 </r>
       <r>    -7.4757     0.0000     0.0000 </r>
       <r>    -7.2686     0.0000     0.0000 </r>
       <r>    -7.0616     0.0000     0.0000 </r>
       <r>    -6.8545     0.0000     0.0000 </r>
       <r>    -6.6475     0.0000     0.0000 </r>
       <r>    -6.4404     0.0000     0.0000 </r>
       <r>    -6.2334     0.0000     0.0000 </r>
       <r>    -6.0263     0.0000     0.0000 </r>
       <r>    -5.8193     0.0000     0.0000 </r>
       <r>    -5.6123     0.0000     0.0000 </r>
       <r>    -5.4052     0.0000     0.0000 </r>
       <r>    -5.1982     0.0000     0.0000 </r>
       <r>    -4.9911     0.0000     0.0000 </r>
       <r>    -4.7841     0.0000     0.0000 </r>
       <r>    -4.5770     0.0000     0.0000 </r>
       <r>    -4.3700     0.0000     0.0000 </r>
       <r>    -4.1629     0.0000     0.0000 </r>
       <r>    -3.9559     0.0000     0.0000 </r>
       <r>    -3.7489     0.0000     0.0000 </r>
       <r>    -3.5418     0.0000     0.0000 </r>
       <r>    -3.3348     0.0000     0.0000 </r>
       <r>    -3.1277     0.0000     0.0000 </r>
       <r>    -2.9207     0.0000     0.0000 </r>
       <r>    -2.7136     0.0000     0.0000 </r>
       <r>    -2.5066     0.0000     0.0000 </r>
       <r>    -2.2995     0.0000     0.0000 </r>
       <r>    -2.0925     0.0000     0.0000 </r>
       <r>    -1.8854     0.0000     0.0000 </r>
       <r>    -1.6784     0.0000     0.0000 </r>
       <r>    -1.4714     0.0000     0.0000 </r>
       <r>    -1.2643     0.0000     0.0000 </r>
       <r>    -1.0573     0.0000     0.0000 </r>
       <r>    -0.8502     0.0000     0.0000 </r>
       <r>    -0.6432     0.0000     0.0000 </r>
       <r>    -0.4361     0.0000     0.0000 </r>
       <r>    -0.2291     0.0000     0.0000 </r>
       <r>    -0.0220     0.0000     0.0000 </r>
       <r>     0.1850     0.0000     0.0000 </r>
       <r>     0.3920     0.0000     0.0000 </r>
       <r>     0.5991     0.0000     0.0000 </r>
       <r>     0.8061     0.0000     0.0000 </r>
       <r>     1.0132     0.0000     0.0000 </r>
       <r>     1.2202     0.0000     0.0000 </r>
       <r>     1.4273     0.0000     0.0000 </r>
       <r>     1.6343     0.0000     0.0000 </r>
       <r>     1.8414     0.0000     0.0000 </r>
       <r>     2.0484     0.0000     0.0000 </r>
       <r>     2.2554     0.0000     0.0000 </r>
       <r>     2.4625     0.0000     0.0000 </r>
       <r>     2.6695     0.0000     0.0000 </r>
       <r>     2.8766     0.0000     0.0000 </r>
       <r>     3.0836     0.0000     0.0000 </r>
       <r>     3.2907     0.0000     0.0000 </r>
       <r>     3.4977     0.0000     0.0000 </r>
       <r>     3.7048     0.0000     0.0000 </r>
       <r>     3.9118     0.0000     0.0000 </r>
       <r>     4.1188     0.0000     0.0000 </r>
       <r>     4.3259     0.0000     0.0000 </r>
       <r>     4.5329     0.0000     0.0000 </r>
       <r>     4.7400     0.0000     0.0000 </r>
       <r>     4.9470     0.0000     0.0000 </r>
       <r>     5.1541     0.0000     0.0000 </r>
       <r>     5.3611     0.0000     0.0000 </r>
       <r>     5.5682     0.0000     0.0000 </r>
       <r>     5.7752     0.0000     0.0000 </r>
       <r>     5.9823     0.0000     0.0000 </r>
       <r>     6.1893     0.0000     0.0000 </r>
       <r>     6.3963     0.0000     0.0000 </r>
       <r>     6.6034     0.0000     0.0000 </r>
       <r>     6.8104     0.0000     0.0000 </r>
       <r>     7.0175     0.0000     0.0000 </r>
       <r>     7.2245     0.0000     0.0000 </r>
       <r>     7.4316     0.0000     0.0000 </r>
       <r>     7.6386     0.0000     0.0000 </r>
       <r>     7.8457     0.0000     0.0000 </r>
       <r>     8.0527     0.0000     0.0000 </r>
       <r>     8.2597     0.0000     0.0000 </r>
       <r>     8.4668     0.0000     0.0000 </r>
       <r>     8.6738     0.0000     0.0000 </r>
       <r>     8.8809     0.0000     0.0000 </r>
       <r>     9.0879     0.0000     0.0000 </r>
       <r>     9.2950     0.0000     0.0000 </r>
       <r>     9.5020     0.0000     0.0000 </r>
       <r>     9.7091     0.0000     0.0000 </r>
       <r>     9.9161     0.0000     0.0000 </r>
       <r>    10.1231     0.0000     0.0000 </r>
       <r>    10.3302     0.0000     0.0000 </r>
       <r>    10.5372     0.0000     0.0000 </r>
       <r>    10.7443     0.0000     0.0000 </r>
       <r>    10.9513     0.0000     0.0000 </r>
       <r>    11.1584     0.0000     0.0000 </r>
       <r>    11.3654     0.0000     0.0000 </r>
       <r>    11.5725     0.0000     0.0000 </r>
       <r>    11.7795     0.0000     0.0000 </r>
       <r>    11.9865     0.0000     0.0000 </r>
       <r>    12.1936     0.0000     0.0000 </r>
       <r>    12.4006     0.0000     0.0000 </r>
       <r>    12.6077     0.0000     0.0000 </r>
       <r>    12.8147     0.0000     0.0000 </r>
       <r>    13.0218     0.0000     0.0000 </r>
       <r>    13.2288     0.0000     0.0000 </r>
       <r>    13.4359     0.0000     0.0000 </r>
       <r>    13.6429     0.0000     0.0000 </r>
       <r>    13.8500     0.0000     0.0000 </r>
       <r>    14.0570     0.0000     0.0000 </r>
       <r>    14.2640     0.0000     0.0000 </r>
       <r>    14.4711     0.0000     0.0000 </r>
       <r>    14.6781     0.0000     0.0000 </r>
       <r>    14.8852     0.0000     0.0000 </r>
       <r>    15.0922     0.0000     0.0000 </r>
       <r>    15.2993     0.0000     0.0000 </r>
       <r>    15.5063     0.0000     0.0000 </r>
       <r>    15.7134     0.0000     0.0000 </r>
       <r>    15.9204     0.0000     0.0000 </r>
       <r>    16.1274     0.0000     0.0000 </r>
       <r>    16.3345     0.0000     0.0000 </r>
       <r>    16.5415     0.0000     0.0000 </r>
       <r>    16.7486     0.0000     0.0000 </r>
       <r>    16.9556     0.0000     0.0000 </r>
       <r>    17.1627     0.0000     0.0000 </r>
       <r>    17.3697     0.0000     0.0000 </r>
       <r>    17.5768     0.0000     0.0000 </r>
       <r>    17.7838     0.0000     0.0000 </r>
       <r>    17.9908     0.0000     0.0000 </r>
       <r>    18.1979     0.0000     0.0000 </r>
       <r>    18.4049     0.0000     0.0000 </r>
       <r>    18.6120     0.0000     0.0000 </r>
       <r>    18.8190     0.0000     0.0000 </r>
       <r>    19.0261     0.0000     0.0000 </r>
       <r>    19.2331     0.0000     0.0000 </r>
       <r>    19.4402     0.0000     0.0000 </r>
       <r>    19.6472     0.0000     0.0000 </r>
       <r>    19.8542     0.0000     0.0000 </r>
       <r>    20.0613     0.0000     0.0000 </r>
       <r>    20.2683     0.0000     0.0000 </r>
       <r>    20.4754     0.0000     0.0000 </r>
       <r>    20.6824     0.0000     0.0000 </r>
       <r>    20.8895     0.0000     0.0000 </r>
       <r>    21.0965     0.0000     0.0000 </r>
       <r>    21.3036     0.0000     0.0000 </r>
       <r>    21.5106     0.0000     0.0000 </r>
       <r>    21.7177     0.0000     0.0000 </r>
       <r>    21.9247     0.0000     0.0000 </r>
       <r>    22.1317     0.0000     0.0000 </r>
       <r>    22.3388     0.0000     0.0000 </r>
       <r>    22.5458     0.0000     0.0000 </r>
       <r>    22.7529     0.0000     0.0000 </r>
       <r>    22.9599     0.0000     0.0000 </r>
       <r>    23.1670     0.0000     0.0000 </r>
       <r>    23.3740     0.0000     0.0000 </r>
       <r>    23.5811     0.0000     0.0000 </r>
       <r>    23.7881     0.0000     0.0000 </r>
      </set>
     </set>
    </array>
   </total>
  </dos>
 </calculation>
 <structure name="finalpos" >
  <crystal>
   <varray name="basis" >
    <v>       3.15663441       0.00000000       0.00000000 </v>
    <v>       1.57831721       2.73372559       0.00000000 </v>
    <v>       1.57831721       0.91124186       2.57738121 </v>
   </varray>
   <i name="volume">     22.24118194 </i>
   <varray name="rec_basis" >
    <v>       0.31679310      -0.18290058      -0.12933024 </v>
    <v>       0.00000000       0.36580116      -0.12933024 </v>
    <v>       0.00000000       0.00000000       0.38799072 </v>
   </varray>
  </crystal>
  <varray name="positions" >
   <v>       0.00000000       0.00000000       0.00000000 </v>
  </varray>
  <varray name="velocities" >
   <v>       0.00000000       0.00000000       0.00000000 </v>
  </varray>
 </structure>
</modeling>
