<?xml version="1.0" encoding="ISO-8859-1"?>
<modeling>
 <generator>
  <i name="program" type="string">vasp </i>
  <i name="version" type="string">5.4.4.18Apr17-6-g9f103f2a35  </i>
  <i name="subversion" type="string">(build Jul 09 2018 16:43:14) complex            parallel </i>
  <i name="platform" type="string">LinuxIFC </i>
  <i name="date" type="string">2018 11 21 </i>
  <i name="time" type="string">22:27:48 </i>
 </generator>
 <incar>
  <i type="string" name="SYSTEM">   Og_FCC</i>
  <i type="string" name="PREC">accurate</i>
  <i type="string" name="ALGO">   Normal</i>
  <i type="logical" name="ADDGRID"> T  </i>
  <i type="logical" name="LSORBIT"> T  </i>
  <i type="int" name="ISPIN">     1</i>
  <i type="int" name="MAXMIX">    50</i>
  <i type="int" name="NELM">    50</i>
  <i type="int" name="NELMDL">    -5</i>
  <i type="int" name="NELMIN">     2</i>
  <i type="int" name="IBRION">    -1</i>
  <i type="int" name="NFREE">     5</i>
  <i name="EDIFF">      0.00000001</i>
  <i name="EDIFFG">      0.00001000</i>
  <i type="int" name="NSW">     1</i>
  <i type="int" name="ISIF">     3</i>
  <i type="int" name="ISYM">     0</i>
  <i name="SYMPREC">      0.00000010</i>
  <i name="ENCUT">    300.00000000</i>
  <i name="POTIM">      0.10000000</i>
  <i type="logical" name="LREAL"> F  </i>
  <i type="int" name="ISMEAR">     0</i>
  <i name="SIGMA">      0.00100000</i>
  <i type="int" name="NWRITE">     2</i>
  <i type="logical" name="LWAVE"> T  </i>
  <i type="logical" name="LCHARG"> F  </i>
  <i type="logical" name="LVTOT"> F  </i>
  <i type="logical" name="LOPTICS"> T  </i>
  <i type="logical" name="GGA_COMPAT"> F  </i>
  <v type="int" name="KPOINT_BSE">    -1     0     0     0</v>
  <i type="int" name="NELM">    50</i>
  <i type="string" name="GGA"> PE</i>
 </incar>
 <structure name="primitive_cell" >
  <crystal>
   <varray name="basis" >
    <v>       2.97422087       0.00000000       0.00000000 </v>
    <v>       1.48711043       2.57575083       0.00000000 </v>
    <v>       1.48711043       0.85858361       2.42844117 </v>
   </varray>
   <i name="volume">     18.60392805 </i>
   <varray name="rec_basis" >
    <v>       0.33622251      -0.19411816      -0.13726226 </v>
    <v>       0.00000000       0.38823631      -0.13726226 </v>
    <v>       0.00000000       0.00000000       0.41178679 </v>
   </varray>
  </crystal>
  <varray name="positions" >
   <v>       0.00000000       0.00000000       0.00000000 </v>
  </varray>
 </structure>
 <varray name="primitive_index" >
  <v type="int" >        1 </v>
 </varray>
 <kpoints>
  <generation param="Gamma">
   <v type="int" name="divisions">       6        6        6 </v>
   <v name="usershift">      0.00000000       0.00000000       0.00000000 </v>
   <v name="genvec1">      0.16666667       0.00000000      -0.00000000 </v>
   <v name="genvec2">      0.00000000       0.16666667       0.00000000 </v>
   <v name="genvec3">      0.00000000       0.00000000       0.16666667 </v>
   <v name="shift">      0.00000000       0.00000000       0.00000000 </v>
  </generation>
  <varray name="kpointlist" >
   <v>       0.00000000       0.00000000       0.00000000 </v>
   <v>       0.16666667       0.00000000       0.00000000 </v>
   <v>       0.33333333      -0.00000000       0.00000000 </v>
   <v>       0.50000000       0.00000000      -0.00000000 </v>
   <v>      -0.33333333       0.00000000       0.00000000 </v>
   <v>      -0.16666667       0.00000000      -0.00000000 </v>
   <v>       0.00000000       0.16666667       0.00000000 </v>
   <v>       0.16666667       0.16666667       0.00000000 </v>
   <v>       0.33333333       0.16666667       0.00000000 </v>
   <v>       0.50000000       0.16666667       0.00000000 </v>
   <v>      -0.33333333       0.16666667      -0.00000000 </v>
   <v>      -0.16666667       0.16666667      -0.00000000 </v>
   <v>       0.00000000       0.33333333       0.00000000 </v>
   <v>       0.16666667       0.33333333       0.00000000 </v>
   <v>       0.33333333       0.33333333       0.00000000 </v>
   <v>       0.50000000       0.33333333       0.00000000 </v>
   <v>      -0.33333333       0.33333333      -0.00000000 </v>
   <v>      -0.16666667       0.33333333       0.00000000 </v>
   <v>       0.00000000       0.50000000       0.00000000 </v>
   <v>       0.16666667       0.50000000       0.00000000 </v>
   <v>       0.33333333       0.50000000       0.00000000 </v>
   <v>       0.50000000       0.50000000       0.00000000 </v>
   <v>      -0.33333333       0.50000000       0.00000000 </v>
   <v>      -0.16666667       0.50000000       0.00000000 </v>
   <v>       0.00000000      -0.33333333      -0.00000000 </v>
   <v>       0.16666667      -0.33333333      -0.00000000 </v>
   <v>       0.33333333      -0.33333333       0.00000000 </v>
   <v>       0.50000000      -0.33333333       0.00000000 </v>
   <v>      -0.33333333      -0.33333333      -0.00000000 </v>
   <v>      -0.16666667      -0.33333333      -0.00000000 </v>
   <v>       0.00000000      -0.16666667      -0.00000000 </v>
   <v>       0.16666667      -0.16666667       0.00000000 </v>
   <v>       0.33333333      -0.16666667       0.00000000 </v>
   <v>       0.50000000      -0.16666667       0.00000000 </v>
   <v>      -0.33333333      -0.16666667      -0.00000000 </v>
   <v>      -0.16666667      -0.16666667      -0.00000000 </v>
   <v>       0.00000000       0.00000000       0.16666667 </v>
   <v>       0.16666667       0.00000000       0.16666667 </v>
   <v>       0.33333333      -0.00000000       0.16666667 </v>
   <v>       0.50000000       0.00000000       0.16666667 </v>
   <v>      -0.33333333       0.00000000       0.16666667 </v>
   <v>      -0.16666667       0.00000000       0.16666667 </v>
   <v>       0.00000000       0.16666667       0.16666667 </v>
   <v>       0.16666667       0.16666667       0.16666667 </v>
   <v>       0.33333333       0.16666667       0.16666667 </v>
   <v>       0.50000000       0.16666667       0.16666667 </v>
   <v>      -0.33333333       0.16666667       0.16666667 </v>
   <v>      -0.16666667       0.16666667       0.16666667 </v>
   <v>       0.00000000       0.33333333       0.16666667 </v>
   <v>       0.16666667       0.33333333       0.16666667 </v>
   <v>       0.33333333       0.33333333       0.16666667 </v>
   <v>       0.50000000       0.33333333       0.16666667 </v>
   <v>      -0.33333333       0.33333333       0.16666667 </v>
   <v>      -0.16666667       0.33333333       0.16666667 </v>
   <v>       0.00000000       0.50000000       0.16666667 </v>
   <v>       0.16666667       0.50000000       0.16666667 </v>
   <v>       0.33333333       0.50000000       0.16666667 </v>
   <v>       0.50000000       0.50000000       0.16666667 </v>
   <v>      -0.33333333       0.50000000       0.16666667 </v>
   <v>      -0.16666667       0.50000000       0.16666667 </v>
   <v>       0.00000000      -0.33333333       0.16666667 </v>
   <v>       0.16666667      -0.33333333       0.16666667 </v>
   <v>       0.33333333      -0.33333333       0.16666667 </v>
   <v>       0.50000000      -0.33333333       0.16666667 </v>
   <v>      -0.33333333      -0.33333333       0.16666667 </v>
   <v>      -0.16666667      -0.33333333       0.16666667 </v>
   <v>       0.00000000      -0.16666667       0.16666667 </v>
   <v>       0.16666667      -0.16666667       0.16666667 </v>
   <v>       0.33333333      -0.16666667       0.16666667 </v>
   <v>       0.50000000      -0.16666667       0.16666667 </v>
   <v>      -0.33333333      -0.16666667       0.16666667 </v>
   <v>      -0.16666667      -0.16666667       0.16666667 </v>
   <v>       0.00000000       0.00000000       0.33333333 </v>
   <v>       0.16666667       0.00000000       0.33333333 </v>
   <v>       0.33333333      -0.00000000       0.33333333 </v>
   <v>       0.50000000       0.00000000       0.33333333 </v>
   <v>      -0.33333333       0.00000000       0.33333333 </v>
   <v>      -0.16666667       0.00000000       0.33333333 </v>
   <v>       0.00000000       0.16666667       0.33333333 </v>
   <v>       0.16666667       0.16666667       0.33333333 </v>
   <v>       0.33333333       0.16666667       0.33333333 </v>
   <v>       0.50000000       0.16666667       0.33333333 </v>
   <v>      -0.33333333       0.16666667       0.33333333 </v>
   <v>      -0.16666667       0.16666667       0.33333333 </v>
   <v>       0.00000000       0.33333333       0.33333333 </v>
   <v>       0.16666667       0.33333333       0.33333333 </v>
   <v>       0.33333333       0.33333333       0.33333333 </v>
   <v>       0.50000000       0.33333333       0.33333333 </v>
   <v>      -0.33333333       0.33333333       0.33333333 </v>
   <v>      -0.16666667       0.33333333       0.33333333 </v>
   <v>       0.00000000       0.50000000       0.33333333 </v>
   <v>       0.16666667       0.50000000       0.33333333 </v>
   <v>       0.33333333       0.50000000       0.33333333 </v>
   <v>       0.50000000       0.50000000       0.33333333 </v>
   <v>      -0.33333333       0.50000000       0.33333333 </v>
   <v>      -0.16666667       0.50000000       0.33333333 </v>
   <v>       0.00000000      -0.33333333       0.33333333 </v>
   <v>       0.16666667      -0.33333333       0.33333333 </v>
   <v>       0.33333333      -0.33333333       0.33333333 </v>
   <v>       0.50000000      -0.33333333       0.33333333 </v>
   <v>      -0.33333333      -0.33333333       0.33333333 </v>
   <v>      -0.16666667      -0.33333333       0.33333333 </v>
   <v>       0.00000000      -0.16666667       0.33333333 </v>
   <v>       0.16666667      -0.16666667       0.33333333 </v>
   <v>       0.33333333      -0.16666667       0.33333333 </v>
   <v>       0.50000000      -0.16666667       0.33333333 </v>
   <v>      -0.33333333      -0.16666667       0.33333333 </v>
   <v>      -0.16666667      -0.16666667       0.33333333 </v>
   <v>       0.00000000       0.00000000       0.50000000 </v>
   <v>       0.16666667       0.00000000       0.50000000 </v>
   <v>       0.33333333      -0.00000000       0.50000000 </v>
   <v>       0.50000000       0.00000000       0.50000000 </v>
   <v>      -0.33333333       0.00000000       0.50000000 </v>
   <v>      -0.16666667       0.00000000       0.50000000 </v>
   <v>       0.00000000       0.16666667       0.50000000 </v>
   <v>       0.16666667       0.16666667       0.50000000 </v>
   <v>       0.33333333       0.16666667       0.50000000 </v>
   <v>       0.50000000       0.16666667       0.50000000 </v>
   <v>      -0.33333333       0.16666667       0.50000000 </v>
   <v>      -0.16666667       0.16666667       0.50000000 </v>
   <v>       0.00000000       0.33333333       0.50000000 </v>
   <v>       0.16666667       0.33333333       0.50000000 </v>
   <v>       0.33333333       0.33333333       0.50000000 </v>
   <v>       0.50000000       0.33333333       0.50000000 </v>
   <v>      -0.33333333       0.33333333       0.50000000 </v>
   <v>      -0.16666667       0.33333333       0.50000000 </v>
   <v>       0.00000000       0.50000000       0.50000000 </v>
   <v>       0.16666667       0.50000000       0.50000000 </v>
   <v>       0.33333333       0.50000000       0.50000000 </v>
   <v>       0.50000000       0.50000000       0.50000000 </v>
   <v>      -0.33333333       0.50000000       0.50000000 </v>
   <v>      -0.16666667       0.50000000       0.50000000 </v>
   <v>       0.00000000      -0.33333333       0.50000000 </v>
   <v>       0.16666667      -0.33333333       0.50000000 </v>
   <v>       0.33333333      -0.33333333       0.50000000 </v>
   <v>       0.50000000      -0.33333333       0.50000000 </v>
   <v>      -0.33333333      -0.33333333       0.50000000 </v>
   <v>      -0.16666667      -0.33333333       0.50000000 </v>
   <v>       0.00000000      -0.16666667       0.50000000 </v>
   <v>       0.16666667      -0.16666667       0.50000000 </v>
   <v>       0.33333333      -0.16666667       0.50000000 </v>
   <v>       0.50000000      -0.16666667       0.50000000 </v>
   <v>      -0.33333333      -0.16666667       0.50000000 </v>
   <v>      -0.16666667      -0.16666667       0.50000000 </v>
   <v>       0.00000000       0.00000000      -0.33333333 </v>
   <v>       0.16666667       0.00000000      -0.33333333 </v>
   <v>       0.33333333      -0.00000000      -0.33333333 </v>
   <v>       0.50000000       0.00000000      -0.33333333 </v>
   <v>      -0.33333333       0.00000000      -0.33333333 </v>
   <v>      -0.16666667       0.00000000      -0.33333333 </v>
   <v>       0.00000000       0.16666667      -0.33333333 </v>
   <v>       0.16666667       0.16666667      -0.33333333 </v>
   <v>       0.33333333       0.16666667      -0.33333333 </v>
   <v>       0.50000000       0.16666667      -0.33333333 </v>
   <v>      -0.33333333       0.16666667      -0.33333333 </v>
   <v>      -0.16666667       0.16666667      -0.33333333 </v>
   <v>       0.00000000       0.33333333      -0.33333333 </v>
   <v>       0.16666667       0.33333333      -0.33333333 </v>
   <v>       0.33333333       0.33333333      -0.33333333 </v>
   <v>       0.50000000       0.33333333      -0.33333333 </v>
   <v>      -0.33333333       0.33333333      -0.33333333 </v>
   <v>      -0.16666667       0.33333333      -0.33333333 </v>
   <v>       0.00000000       0.50000000      -0.33333333 </v>
   <v>       0.16666667       0.50000000      -0.33333333 </v>
   <v>       0.33333333       0.50000000      -0.33333333 </v>
   <v>       0.50000000       0.50000000      -0.33333333 </v>
   <v>      -0.33333333       0.50000000      -0.33333333 </v>
   <v>      -0.16666667       0.50000000      -0.33333333 </v>
   <v>       0.00000000      -0.33333333      -0.33333333 </v>
   <v>       0.16666667      -0.33333333      -0.33333333 </v>
   <v>       0.33333333      -0.33333333      -0.33333333 </v>
   <v>       0.50000000      -0.33333333      -0.33333333 </v>
   <v>      -0.33333333      -0.33333333      -0.33333333 </v>
   <v>      -0.16666667      -0.33333333      -0.33333333 </v>
   <v>       0.00000000      -0.16666667      -0.33333333 </v>
   <v>       0.16666667      -0.16666667      -0.33333333 </v>
   <v>       0.33333333      -0.16666667      -0.33333333 </v>
   <v>       0.50000000      -0.16666667      -0.33333333 </v>
   <v>      -0.33333333      -0.16666667      -0.33333333 </v>
   <v>      -0.16666667      -0.16666667      -0.33333333 </v>
   <v>       0.00000000       0.00000000      -0.16666667 </v>
   <v>       0.16666667       0.00000000      -0.16666667 </v>
   <v>       0.33333333      -0.00000000      -0.16666667 </v>
   <v>       0.50000000       0.00000000      -0.16666667 </v>
   <v>      -0.33333333       0.00000000      -0.16666667 </v>
   <v>      -0.16666667       0.00000000      -0.16666667 </v>
   <v>       0.00000000       0.16666667      -0.16666667 </v>
   <v>       0.16666667       0.16666667      -0.16666667 </v>
   <v>       0.33333333       0.16666667      -0.16666667 </v>
   <v>       0.50000000       0.16666667      -0.16666667 </v>
   <v>      -0.33333333       0.16666667      -0.16666667 </v>
   <v>      -0.16666667       0.16666667      -0.16666667 </v>
   <v>       0.00000000       0.33333333      -0.16666667 </v>
   <v>       0.16666667       0.33333333      -0.16666667 </v>
   <v>       0.33333333       0.33333333      -0.16666667 </v>
   <v>       0.50000000       0.33333333      -0.16666667 </v>
   <v>      -0.33333333       0.33333333      -0.16666667 </v>
   <v>      -0.16666667       0.33333333      -0.16666667 </v>
   <v>       0.00000000       0.50000000      -0.16666667 </v>
   <v>       0.16666667       0.50000000      -0.16666667 </v>
   <v>       0.33333333       0.50000000      -0.16666667 </v>
   <v>       0.50000000       0.50000000      -0.16666667 </v>
   <v>      -0.33333333       0.50000000      -0.16666667 </v>
   <v>      -0.16666667       0.50000000      -0.16666667 </v>
   <v>       0.00000000      -0.33333333      -0.16666667 </v>
   <v>       0.16666667      -0.33333333      -0.16666667 </v>
   <v>       0.33333333      -0.33333333      -0.16666667 </v>
   <v>       0.50000000      -0.33333333      -0.16666667 </v>
   <v>      -0.33333333      -0.33333333      -0.16666667 </v>
   <v>      -0.16666667      -0.33333333      -0.16666667 </v>
   <v>       0.00000000      -0.16666667      -0.16666667 </v>
   <v>       0.16666667      -0.16666667      -0.16666667 </v>
   <v>       0.33333333      -0.16666667      -0.16666667 </v>
   <v>       0.50000000      -0.16666667      -0.16666667 </v>
   <v>      -0.33333333      -0.16666667      -0.16666667 </v>
   <v>      -0.16666667      -0.16666667      -0.16666667 </v>
  </varray>
  <varray name="weights" >
   <v>       0.00462963 </v>
   <v>       0.00462963 </v>
   <v>       0.00462963 </v>
   <v>       0.00462963 </v>
   <v>       0.00462963 </v>
   <v>       0.00462963 </v>
   <v>       0.00462963 </v>
   <v>       0.00462963 </v>
   <v>       0.00462963 </v>
   <v>       0.00462963 </v>
   <v>       0.00462963 </v>
   <v>       0.00462963 </v>
   <v>       0.00462963 </v>
   <v>       0.00462963 </v>
   <v>       0.00462963 </v>
   <v>       0.00462963 </v>
   <v>       0.00462963 </v>
   <v>       0.00462963 </v>
   <v>       0.00462963 </v>
   <v>       0.00462963 </v>
   <v>       0.00462963 </v>
   <v>       0.00462963 </v>
   <v>       0.00462963 </v>
   <v>       0.00462963 </v>
   <v>       0.00462963 </v>
   <v>       0.00462963 </v>
   <v>       0.00462963 </v>
   <v>       0.00462963 </v>
   <v>       0.00462963 </v>
   <v>       0.00462963 </v>
   <v>       0.00462963 </v>
   <v>       0.00462963 </v>
   <v>       0.00462963 </v>
   <v>       0.00462963 </v>
   <v>       0.00462963 </v>
   <v>       0.00462963 </v>
   <v>       0.00462963 </v>
   <v>       0.00462963 </v>
   <v>       0.00462963 </v>
   <v>       0.00462963 </v>
   <v>       0.00462963 </v>
   <v>       0.00462963 </v>
   <v>       0.00462963 </v>
   <v>       0.00462963 </v>
   <v>       0.00462963 </v>
   <v>       0.00462963 </v>
   <v>       0.00462963 </v>
   <v>       0.00462963 </v>
   <v>       0.00462963 </v>
   <v>       0.00462963 </v>
   <v>       0.00462963 </v>
   <v>       0.00462963 </v>
   <v>       0.00462963 </v>
   <v>       0.00462963 </v>
   <v>       0.00462963 </v>
   <v>       0.00462963 </v>
   <v>       0.00462963 </v>
   <v>       0.00462963 </v>
   <v>       0.00462963 </v>
   <v>       0.00462963 </v>
   <v>       0.00462963 </v>
   <v>       0.00462963 </v>
   <v>       0.00462963 </v>
   <v>       0.00462963 </v>
   <v>       0.00462963 </v>
   <v>       0.00462963 </v>
   <v>       0.00462963 </v>
   <v>       0.00462963 </v>
   <v>       0.00462963 </v>
   <v>       0.00462963 </v>
   <v>       0.00462963 </v>
   <v>       0.00462963 </v>
   <v>       0.00462963 </v>
   <v>       0.00462963 </v>
   <v>       0.00462963 </v>
   <v>       0.00462963 </v>
   <v>       0.00462963 </v>
   <v>       0.00462963 </v>
   <v>       0.00462963 </v>
   <v>       0.00462963 </v>
   <v>       0.00462963 </v>
   <v>       0.00462963 </v>
   <v>       0.00462963 </v>
   <v>       0.00462963 </v>
   <v>       0.00462963 </v>
   <v>       0.00462963 </v>
   <v>       0.00462963 </v>
   <v>       0.00462963 </v>
   <v>       0.00462963 </v>
   <v>       0.00462963 </v>
   <v>       0.00462963 </v>
   <v>       0.00462963 </v>
   <v>       0.00462963 </v>
   <v>       0.00462963 </v>
   <v>       0.00462963 </v>
   <v>       0.00462963 </v>
   <v>       0.00462963 </v>
   <v>       0.00462963 </v>
   <v>       0.00462963 </v>
   <v>       0.00462963 </v>
   <v>       0.00462963 </v>
   <v>       0.00462963 </v>
   <v>       0.00462963 </v>
   <v>       0.00462963 </v>
   <v>       0.00462963 </v>
   <v>       0.00462963 </v>
   <v>       0.00462963 </v>
   <v>       0.00462963 </v>
   <v>       0.00462963 </v>
   <v>       0.00462963 </v>
   <v>       0.00462963 </v>
   <v>       0.00462963 </v>
   <v>       0.00462963 </v>
   <v>       0.00462963 </v>
   <v>       0.00462963 </v>
   <v>       0.00462963 </v>
   <v>       0.00462963 </v>
   <v>       0.00462963 </v>
   <v>       0.00462963 </v>
   <v>       0.00462963 </v>
   <v>       0.00462963 </v>
   <v>       0.00462963 </v>
   <v>       0.00462963 </v>
   <v>       0.00462963 </v>
   <v>       0.00462963 </v>
   <v>       0.00462963 </v>
   <v>       0.00462963 </v>
   <v>       0.00462963 </v>
   <v>       0.00462963 </v>
   <v>       0.00462963 </v>
   <v>       0.00462963 </v>
   <v>       0.00462963 </v>
   <v>       0.00462963 </v>
   <v>       0.00462963 </v>
   <v>       0.00462963 </v>
   <v>       0.00462963 </v>
   <v>       0.00462963 </v>
   <v>       0.00462963 </v>
   <v>       0.00462963 </v>
   <v>       0.00462963 </v>
   <v>       0.00462963 </v>
   <v>       0.00462963 </v>
   <v>       0.00462963 </v>
   <v>       0.00462963 </v>
   <v>       0.00462963 </v>
   <v>       0.00462963 </v>
   <v>       0.00462963 </v>
   <v>       0.00462963 </v>
   <v>       0.00462963 </v>
   <v>       0.00462963 </v>
   <v>       0.00462963 </v>
   <v>       0.00462963 </v>
   <v>       0.00462963 </v>
   <v>       0.00462963 </v>
   <v>       0.00462963 </v>
   <v>       0.00462963 </v>
   <v>       0.00462963 </v>
   <v>       0.00462963 </v>
   <v>       0.00462963 </v>
   <v>       0.00462963 </v>
   <v>       0.00462963 </v>
   <v>       0.00462963 </v>
   <v>       0.00462963 </v>
   <v>       0.00462963 </v>
   <v>       0.00462963 </v>
   <v>       0.00462963 </v>
   <v>       0.00462963 </v>
   <v>       0.00462963 </v>
   <v>       0.00462963 </v>
   <v>       0.00462963 </v>
   <v>       0.00462963 </v>
   <v>       0.00462963 </v>
   <v>       0.00462963 </v>
   <v>       0.00462963 </v>
   <v>       0.00462963 </v>
   <v>       0.00462963 </v>
   <v>       0.00462963 </v>
   <v>       0.00462963 </v>
   <v>       0.00462963 </v>
   <v>       0.00462963 </v>
   <v>       0.00462963 </v>
   <v>       0.00462963 </v>
   <v>       0.00462963 </v>
   <v>       0.00462963 </v>
   <v>       0.00462963 </v>
   <v>       0.00462963 </v>
   <v>       0.00462963 </v>
   <v>       0.00462963 </v>
   <v>       0.00462963 </v>
   <v>       0.00462963 </v>
   <v>       0.00462963 </v>
   <v>       0.00462963 </v>
   <v>       0.00462963 </v>
   <v>       0.00462963 </v>
   <v>       0.00462963 </v>
   <v>       0.00462963 </v>
   <v>       0.00462963 </v>
   <v>       0.00462963 </v>
   <v>       0.00462963 </v>
   <v>       0.00462963 </v>
   <v>       0.00462963 </v>
   <v>       0.00462963 </v>
   <v>       0.00462963 </v>
   <v>       0.00462963 </v>
   <v>       0.00462963 </v>
   <v>       0.00462963 </v>
   <v>       0.00462963 </v>
   <v>       0.00462963 </v>
   <v>       0.00462963 </v>
   <v>       0.00462963 </v>
   <v>       0.00462963 </v>
   <v>       0.00462963 </v>
   <v>       0.00462963 </v>
   <v>       0.00462963 </v>
   <v>       0.00462963 </v>
   <v>       0.00462963 </v>
  </varray>
 </kpoints>
 <parameters>
  <separator name="general" >
   <i type="string" name="SYSTEM">Og_FCC</i>
   <i type="logical" name="LCOMPAT"> F  </i>
  </separator>
  <separator name="electronic" >
   <i type="string" name="PREC">accura</i>
   <i name="ENMAX">    300.00000000</i>
   <i name="ENAUG">    755.75300000</i>
   <i name="EDIFF">      0.00000001</i>
   <i type="int" name="IALGO">    38</i>
   <i type="int" name="IWAVPR">    10</i>
   <i type="int" name="NBANDS">    20</i>
   <i name="NELECT">      8.00000000</i>
   <i type="int" name="TURBO">     0</i>
   <i type="int" name="IRESTART">     0</i>
   <i type="int" name="NREBOOT">     0</i>
   <i type="int" name="NMIN">     0</i>
   <i name="EREF">      0.00000000</i>
   <separator name="electronic smearing" >
    <i type="int" name="ISMEAR">     0</i>
    <i name="SIGMA">      0.00100000</i>
    <i name="KSPACING">      0.50000000</i>
    <i type="logical" name="KGAMMA"> T  </i>
   </separator>
   <separator name="electronic projectors" >
    <i type="logical" name="LREAL"> F  </i>
    <v name="ROPT">      0.00000000</v>
    <i type="int" name="LMAXPAW">  -100</i>
    <i type="int" name="LMAXMIX">     2</i>
    <i type="logical" name="NLSPLINE"> F  </i>
   </separator>
   <separator name="electronic startup" >
    <i type="int" name="ISTART">     1</i>
    <i type="int" name="ICHARG">     0</i>
    <i type="int" name="INIWAV">     1</i>
   </separator>
   <separator name="electronic spin" >
    <i type="int" name="ISPIN">     1</i>
    <i type="logical" name="LNONCOLLINEAR"> T  </i>
    <v name="MAGMOM">      1.00000000      1.00000000      1.00000000</v>
    <i name="NUPDOWN">     -1.00000000</i>
    <i type="logical" name="LSORBIT"> T  </i>
    <v name="SAXIS">      0.00000000      0.00000000      1.00000000</v>
    <i type="logical" name="LSPIRAL"> F  </i>
    <v name="QSPIRAL">      0.00000000      0.00000000      0.00000000</v>
    <i type="logical" name="LZEROZ"> F  </i>
   </separator>
   <separator name="electronic exchange-correlation" >
    <i type="logical" name="LASPH"> F  </i>
    <i type="logical" name="LMETAGGA"> F  </i>
   </separator>
   <separator name="electronic convergence" >
    <i type="int" name="NELM">    50</i>
    <i type="int" name="NELMDL">    -5</i>
    <i type="int" name="NELMIN">     2</i>
    <i name="ENINI">    300.00000000</i>
    <separator name="electronic convergence detail" >
     <i type="logical" name="LDIAG"> T  </i>
     <i type="logical" name="LSUBROT"> F  </i>
     <i name="WEIMIN">      0.00000000</i>
     <i name="EBREAK">      0.00000000</i>
     <i name="DEPER">      0.30000000</i>
     <i type="int" name="NRMM">     4</i>
     <i name="TIME">      0.40000000</i>
    </separator>
   </separator>
   <separator name="electronic mixer" >
    <i name="AMIX">      0.40000000</i>
    <i name="BMIX">      1.00000000</i>
    <i name="AMIN">      0.10000000</i>
    <i name="AMIX_MAG">      1.60000000</i>
    <i name="BMIX_MAG">      1.00000000</i>
    <separator name="electronic mixer details" >
     <i type="int" name="IMIX">     4</i>
     <i type="logical" name="MIXFIRST"> F  </i>
     <i type="int" name="MAXMIX">    50</i>
     <i name="WC">    100.00000000</i>
     <i type="int" name="INIMIX">     1</i>
     <i type="int" name="MIXPRE">     1</i>
     <i type="int" name="MREMOVE">     5</i>
    </separator>
   </separator>
   <separator name="electronic dipolcorrection" >
    <i type="logical" name="LDIPOL"> F  </i>
    <i type="logical" name="LMONO"> F  </i>
    <i type="int" name="IDIPOL">     0</i>
    <i name="EPSILON">      1.00000000</i>
    <v name="DIPOL">   -100.00000000   -100.00000000   -100.00000000</v>
    <i name="EFIELD">      0.00000000</i>
   </separator>
  </separator>
  <separator name="grids" >
   <i type="int" name="NGX">    18</i>
   <i type="int" name="NGY">    18</i>
   <i type="int" name="NGZ">    18</i>
   <i type="int" name="NGXF">    36</i>
   <i type="int" name="NGYF">    36</i>
   <i type="int" name="NGZF">    36</i>
   <i type="logical" name="ADDGRID"> T  </i>
  </separator>
  <separator name="ionic" >
   <i type="int" name="NSW">     1</i>
   <i type="int" name="IBRION">    -1</i>
   <i type="int" name="MDALGO">     0</i>
   <i type="int" name="ISIF">     3</i>
   <i name="PSTRESS">      0.00000000</i>
   <i name="EDIFFG">      0.00001000</i>
   <i type="int" name="NFREE">     5</i>
   <i name="POTIM">      0.10000000</i>
   <i name="SMASS">     -3.00000000</i>
   <i name="SCALEE">      1.00000000</i>
  </separator>
  <separator name="ionic md" >
   <i name="TEBEG">      0.00010000</i>
   <i name="TEEND">      0.00010000</i>
   <i type="int" name="NBLOCK">     1</i>
   <i type="int" name="KBLOCK">     1</i>
   <i type="int" name="NPACO">   256</i>
   <i name="APACO">     16.00000000</i>
  </separator>
  <separator name="symmetry" >
   <i type="int" name="ISYM">     0</i>
   <i name="SYMPREC">      0.00000010</i>
  </separator>
  <separator name="dos" >
   <i type="int" name="LORBIT">     0</i>
   <v name="RWIGS">     -1.00000000</v>
   <i type="int" name="NEDOS">   301</i>
   <i name="EMIN">     10.00000000</i>
   <i name="EMAX">    -10.00000000</i>
   <i name="EFERMI">      0.00000000</i>
  </separator>
  <separator name="writing" >
   <i type="int" name="NWRITE">     2</i>
   <i type="logical" name="LWAVE"> T  </i>
   <i type="logical" name="LDOWNSAMPLE"> F  </i>
   <i type="logical" name="LCHARG"> F  </i>
   <i type="logical" name="LPARD"> F  </i>
   <i type="logical" name="LVTOT"> F  </i>
   <i type="logical" name="LVHAR"> F  </i>
   <i type="logical" name="LELF"> F  </i>
   <i type="logical" name="LOPTICS"> T  </i>
   <v name="STM">      0.00000000      0.00000000      0.00000000      0.00000000      0.00000000      0.00000000      0.00000000</v>
  </separator>
  <separator name="performance" >
   <i type="int" name="NPAR">     4</i>
   <i type="int" name="NSIM">     4</i>
   <i type="int" name="NBLK">    -1</i>
   <i type="logical" name="LPLANE"> T  </i>
   <i type="logical" name="LSCALAPACK"> T  </i>
   <i type="logical" name="LSCAAWARE"> T  </i>
   <i type="logical" name="LSCALU"> F  </i>
   <i type="logical" name="LASYNC"> F  </i>
   <i type="logical" name="LORBITALREAL"> F  </i>
  </separator>
  <separator name="miscellaneous" >
   <i type="int" name="IDIOT">     3</i>
   <i type="int" name="ISPECIAL">     0</i>
   <i type="logical" name="LMUSIC"> F  </i>
   <v name="POMASS">     20.18000000</v>
   <v name="DARWINR">      0.00000000</v>
   <v name="DARWINV">      1.00000000</v>
   <i type="logical" name="LCORR"> T  </i>
  </separator>
  <i type="logical" name="GGA_COMPAT"> F  </i>
  <i type="logical" name="LBERRY"> F  </i>
  <i type="int" name="ICORELEVEL">     0</i>
  <i type="logical" name="LDAU"> F  </i>
  <i type="int" name="I_CONSTRAINED_M">     0</i>
  <separator name="electronic exchange-correlation" >
   <i type="string" name="GGA">PE</i>
   <i type="int" name="VOSKOWN">     0</i>
   <i type="logical" name="LHFCALC"> F  </i>
   <i type="string" name="PRECFOCK"></i>
   <i type="logical" name="LSYMGRAD"> F  </i>
   <i type="logical" name="LHFONE"> F  </i>
   <i type="logical" name="LRHFCALC"> F  </i>
   <i type="logical" name="LTHOMAS"> F  </i>
   <i type="logical" name="LMODELHF"> F  </i>
   <i name="ENCUT4O">     -1.00000000</i>
   <i type="int" name="EXXOEP">     0</i>
   <i type="int" name="FOURORBIT">     0</i>
   <i name="AEXX">      0.00000000</i>
   <i name="HFALPHA">      0.00000000</i>
   <i name="MCALPHA">      0.00000000</i>
   <i name="ALDAX">      1.00000000</i>
   <i name="AGGAX">      1.00000000</i>
   <i name="ALDAC">      1.00000000</i>
   <i name="AGGAC">      1.00000000</i>
   <i type="int" name="NKREDX">     1</i>
   <i type="int" name="NKREDY">     1</i>
   <i type="int" name="NKREDZ">     1</i>
   <i type="logical" name="SHIFTRED"> F  </i>
   <i type="logical" name="ODDONLY"> F  </i>
   <i type="logical" name="EVENONLY"> F  </i>
   <i type="int" name="LMAXFOCK">     0</i>
   <i type="int" name="NMAXFOCKAE">     0</i>
   <i type="logical" name="LFOCKAEDFT"> F  </i>
   <i name="HFSCREEN">      0.00000000</i>
   <i name="HFSCREENC">      0.00000000</i>
   <i type="int" name="NBANDSGWLOW">     0</i>
  </separator>
  <separator name="vdW DFT" >
   <i type="logical" name="LUSE_VDW"> F  </i>
   <i name="Zab_VDW">     -0.84910000</i>
   <i name="PARAM1">      0.12340000</i>
   <i name="PARAM2">      1.00000000</i>
   <i name="PARAM3">      0.00000000</i>
  </separator>
  <separator name="model GW" >
   <i type="int" name="MODEL_GW">     0</i>
   <i name="MODEL_EPS0">     11.16235683</i>
   <i name="MODEL_ALPHA">      1.00000000</i>
  </separator>
  <separator name="linear response parameters" >
   <i type="logical" name="LEPSILON"> F  </i>
   <i type="logical" name="LRPA"> F  </i>
   <i type="logical" name="LNABLA"> F  </i>
   <i type="logical" name="LVEL"> F  </i>
   <i type="int" name="KINTER">     0</i>
   <i name="CSHIFT">      0.10000000</i>
   <i name="OMEGAMAX">     -1.00000000</i>
   <i name="DEG_THRESHOLD">      0.00200000</i>
   <i name="RTIME">     -0.10000000</i>
   <i name="WPLASMAI">      0.00000000</i>
   <v name="DFIELD">      0.00000000      0.00000000      0.00000000</v>
   <v name="WPLASMA">      0.00000000      0.00000000      0.00000000      0.00000000      0.00000000      0.00000000      0.00000000      0.00000000      0.00000000</v>
  </separator>
  <separator name="orbital magnetization" >
   <i type="logical" name="NUCIND"> F  </i>
   <v name="MAGPOS">      0.00000000      0.00000000      0.00000000</v>
   <i type="logical" name="LNICSALL"> T  </i>
   <i type="logical" name="ORBITALMAG"> F  </i>
   <i type="logical" name="LMAGBLOCH"> F  </i>
   <i type="logical" name="LCHIMAG"> F  </i>
   <i type="logical" name="LGAUGE"> T  </i>
   <i type="int" name="MAGATOM">     0</i>
   <v name="MAGDIPOL">      0.00000000      0.00000000      0.00000000</v>
   <v name="AVECCONST">      0.00000000      0.00000000      0.00000000</v>
  </separator>
  <separator name="response functions" >
   <i type="logical" name="LADDER"> F  </i>
   <i type="logical" name="LRPAFORCE"> F  </i>
   <i type="logical" name="LFXC"> F  </i>
   <i type="logical" name="LHARTREE"> T  </i>
   <i type="int" name="IBSE">     0</i>
   <v type="int" name="KPOINT">    -1     0     0     0</v>
   <i type="logical" name="LTCTE"> F  </i>
   <i type="logical" name="LTETE"> F  </i>
   <i type="logical" name="LTRIPLET"> F  </i>
   <i type="logical" name="LFXCEPS"> F  </i>
   <i type="logical" name="LFXHEG"> F  </i>
   <i type="int" name="NATURALO">     2</i>
   <i type="logical" name="L2ORDER"> F  </i>
   <i type="logical" name="LMP2LT"> F  </i>
   <i type="logical" name="LUSEW"> F  </i>
   <i name="ENCUTGW">     -2.00000000</i>
   <i name="ENCUTGWSOFT">     -2.00000000</i>
   <i name="ENCUTLF">     -1.00000000</i>
   <i type="int" name="LMAXMP2">    -1</i>
   <i name="SCISSOR">      0.00000000</i>
   <i type="int" name="NOMEGA">     0</i>
   <i type="int" name="NOMEGAR">     0</i>
   <i type="int" name="NBANDSGW">    -1</i>
   <i type="int" name="NBANDSO">    -1</i>
   <i type="int" name="NBANDSV">    -1</i>
   <i type="int" name="NELM">    50</i>
   <i type="int" name="NELMHF">     1</i>
   <i type="int" name="DIM">     3</i>
   <i type="int" name="ANTIRES">     0</i>
   <i name="OMEGAMAX">    -30.00000000</i>
   <i name="OMEGAMIN">    -30.00000000</i>
   <i name="OMEGATL">   -200.00000000</i>
   <i type="int" name="OMEGAGRID">   140</i>
   <i name="CSHIFT">     -0.10000000</i>
   <i type="logical" name="SELFENERGY"> F  </i>
   <i type="logical" name="LSPECTRAL"> F  </i>
   <i type="logical" name="LSPECTRALGW"> F  </i>
   <i type="logical" name="LSINGLES"> F  </i>
   <i type="logical" name="LFERMIGW"> F  </i>
   <i type="logical" name="ODDONLYGW"> F  </i>
   <i type="logical" name="EVENONLYGW"> F  </i>
   <i type="int" name="NKREDLFX">     1</i>
   <i type="int" name="NKREDLFY">     1</i>
   <i type="int" name="NKREDLFZ">     1</i>
   <i type="int" name="MAXMEM">  2800</i>
   <i type="int" name="TELESCOPE">     0</i>
   <i type="int" name="TAUPAR">     1</i>
   <i type="int" name="OMEGAPAR">    -1</i>
   <i name="LAMBDA">      1.00000000</i>
  </separator>
  <separator name="External order field" >
   <i name="OFIELD_KAPPA">      0.00000000</i>
   <v name="OFIELD_K">      0.00000000      0.00000000      0.00000000</v>
   <i name="OFIELD_Q6_NEAR">      0.00000000</i>
   <i name="OFIELD_Q6_FAR">      0.00000000</i>
   <i name="OFIELD_A">      0.00000000</i>
  </separator>
 </parameters>
 <atominfo>
  <atoms>       1 </atoms>
  <types>       1 </types>
  <array name="atoms" >
   <dimension dim="1">ion</dimension>
   <field type="string">element</field>
   <field type="int">atomtype</field>
   <set>
    <rc><c>Ne</c><c>   1</c></rc>
   </set>
  </array>
  <array name="atomtypes" >
   <dimension dim="1">type</dimension>
   <field type="int">atomspertype</field>
   <field type="string">element</field>
   <field>mass</field>
   <field>valence</field>
   <field type="string">pseudopotential</field>
   <set>
    <rc><c>   1</c><c>Ne</c><c>     20.18000000</c><c>      8.00000000</c><c>  PAW_PBE Ne_GW 22Sep2014               </c></rc>
   </set>
  </array>
 </atominfo>
 <structure name="initialpos" >
  <crystal>
   <varray name="basis" >
    <v>       2.97422087       0.00000000       0.00000000 </v>
    <v>       1.48711043       2.57575083       0.00000000 </v>
    <v>       1.48711043       0.85858361       2.42844117 </v>
   </varray>
   <i name="volume">     18.60392805 </i>
   <varray name="rec_basis" >
    <v>       0.33622251      -0.19411816      -0.13726226 </v>
    <v>       0.00000000       0.38823631      -0.13726226 </v>
    <v>       0.00000000       0.00000000       0.41178679 </v>
   </varray>
  </crystal>
  <varray name="positions" >
   <v>       0.00000000       0.00000000       0.00000000 </v>
  </varray>
  <varray name="velocities" >
   <v>       0.00000000       0.00000000       0.00000000 </v>
  </varray>
 </structure>
 <calculation>
  <scstep>
   <time name="dav">    0.48    0.48</time>
   <time name="total">    0.50    0.51</time>
   <energy>
    <i name="alphaZ">     16.68370675 </i>
    <i name="ewald">   -502.27794943 </i>
    <i name="hartreedc">   -331.90258157 </i>
    <i name="XCdc">     45.55542612 </i>
    <i name="pawpsdc">    737.54475950 </i>
    <i name="pawaedc">   -778.91948183 </i>
    <i name="eentropy">      0.00000000 </i>
    <i name="bandstr">   -136.23353546 </i>
    <i name="atom">    952.67806118 </i>
    <i name="e_fr_energy">      3.12840525 </i>
    <i name="e_wo_entrp">      3.12840525 </i>
    <i name="e_0_energy">      3.12840525 </i>
   </energy>
  </scstep>
  <scstep>
   <time name="dav">    0.47    0.47</time>
   <time name="total">    0.47    0.47</time>
   <energy>
    <i name="e_fr_energy">      3.12840525 </i>
    <i name="e_wo_entrp">      3.12840525 </i>
    <i name="e_0_energy">      3.12840525 </i>
   </energy>
  </scstep>
  <scstep>
   <time name="dav">    0.46    0.46</time>
   <time name="total">    0.47    0.47</time>
   <energy>
    <i name="e_fr_energy">      3.12840525 </i>
    <i name="e_wo_entrp">      3.12840525 </i>
    <i name="e_0_energy">      3.12840525 </i>
   </energy>
  </scstep>
  <scstep>
   <time name="dav">    0.47    0.47</time>
   <time name="total">    0.47    0.48</time>
   <energy>
    <i name="e_fr_energy">      3.12840525 </i>
    <i name="e_wo_entrp">      3.12840525 </i>
    <i name="e_0_energy">      3.12840525 </i>
   </energy>
  </scstep>
  <scstep>
   <time name="dav">    0.46    0.46</time>
   <time name="total">    0.48    0.48</time>
   <energy>
    <i name="e_fr_energy">      3.12840525 </i>
    <i name="e_wo_entrp">      3.12840525 </i>
    <i name="e_0_energy">      3.12840525 </i>
   </energy>
  </scstep>
  <scstep>
   <time name="dav">    0.46    0.46</time>
   <time name="total">    0.48    0.48</time>
   <energy>
    <i name="alphaZ">     16.68370675 </i>
    <i name="ewald">   -502.27794943 </i>
    <i name="hartreedc">   -331.90262570 </i>
    <i name="XCdc">     45.55542898 </i>
    <i name="pawpsdc">    737.54479705 </i>
    <i name="pawaedc">   -778.91953002 </i>
    <i name="eentropy">      0.00000000 </i>
    <i name="bandstr">   -136.23348355 </i>
    <i name="atom">    952.67806118 </i>
    <i name="e_fr_energy">      3.12840525 </i>
    <i name="e_wo_entrp">      3.12840525 </i>
    <i name="e_0_energy">      3.12840525 </i>
   </energy>
  </scstep>
  <structure>
   <crystal>
    <varray name="basis" >
     <v>       2.97422087       0.00000000       0.00000000 </v>
     <v>       1.48711043       2.57575083       0.00000000 </v>
     <v>       1.48711043       0.85858361       2.42844117 </v>
    </varray>
    <i name="volume">     18.60392805 </i>
    <varray name="rec_basis" >
     <v>       0.33622251      -0.19411816      -0.13726226 </v>
     <v>       0.00000000       0.38823631      -0.13726226 </v>
     <v>       0.00000000       0.00000000       0.41178679 </v>
    </varray>
   </crystal>
   <varray name="positions" >
    <v>       0.00000000       0.00000000       0.00000000 </v>
   </varray>
  </structure>
  <varray name="forces" >
   <v>       0.00000000      -0.00000001       0.00000000 </v>
  </varray>
  <varray name="stress" >
   <v>   -2684.75251297      -0.00022664      -0.00156197 </v>
   <v>      -0.00022659   -2684.75369824       0.00136130 </v>
   <v>      -0.00156228       0.00136121   -2684.75656276 </v>
  </varray>
  <energy>
   <i name="e_fr_energy">      3.10489007 </i>
   <i name="e_wo_entrp">      3.10489007 </i>
   <i name="e_0_energy">      0.00000000 </i>
  </energy>
  <time name="totalsc">    3.35    3.40</time>
  <eigenvalues>
   <array>
    <dimension dim="1">band</dimension>
    <dimension dim="2">kpoint</dimension>
    <dimension dim="3">spin</dimension>
    <field>eigene</field>
    <field>occ</field>
    <set>
     <set comment="spin 1">
      <set comment="kpoint 1">
       <r>  -35.1064    1.0000 </r>
       <r>  -35.1064    1.0000 </r>
       <r>  -10.8073    1.0000 </r>
       <r>  -10.8073    1.0000 </r>
       <r>  -10.7086    1.0000 </r>
       <r>  -10.7086    1.0000 </r>
       <r>  -10.7086    1.0000 </r>
       <r>  -10.7086    1.0000 </r>
       <r>    1.2006    0.0000 </r>
       <r>    1.2006    0.0000 </r>
       <r>   20.8891    0.0000 </r>
       <r>   20.8891    0.0000 </r>
       <r>   20.8891    0.0000 </r>
       <r>   20.8891    0.0000 </r>
       <r>   20.8893    0.0000 </r>
       <r>   20.8893    0.0000 </r>
       <r>   23.1079    0.0000 </r>
       <r>   23.1079    0.0000 </r>
       <r>   26.1999    0.0000 </r>
       <r>   26.2006    0.0000 </r>
      </set>
      <set comment="kpoint 2">
       <r>  -35.0557    1.0000 </r>
       <r>  -35.0557    1.0000 </r>
       <r>  -10.8884    1.0000 </r>
       <r>  -10.8884    1.0000 </r>
       <r>  -10.4171    1.0000 </r>
       <r>  -10.4171    1.0000 </r>
       <r>  -10.3588    1.0000 </r>
       <r>  -10.3588    1.0000 </r>
       <r>    2.1428    0.0000 </r>
       <r>    2.1428    0.0000 </r>
       <r>   16.5141    0.0000 </r>
       <r>   16.5141    0.0000 </r>
       <r>   20.7218    0.0000 </r>
       <r>   20.7218    0.0000 </r>
       <r>   20.7232    0.0000 </r>
       <r>   20.7232    0.0000 </r>
       <r>   23.3328    0.0000 </r>
       <r>   23.3328    0.0000 </r>
       <r>   24.8900    0.0000 </r>
       <r>   24.8900    0.0000 </r>
      </set>
      <set comment="kpoint 3">
       <r>  -35.0140    1.0000 </r>
       <r>  -35.0140    1.0000 </r>
       <r>  -11.4759    1.0000 </r>
       <r>  -11.4759    1.0000 </r>
       <r>  -10.8282    1.0000 </r>
       <r>  -10.8282    1.0000 </r>
       <r>  -10.7663    1.0000 </r>
       <r>  -10.7663    1.0000 </r>
       <r>    4.4915    0.0000 </r>
       <r>    4.4915    0.0000 </r>
       <r>   11.7351    0.0000 </r>
       <r>   11.7351    0.0000 </r>
       <r>   19.8389    0.0000 </r>
       <r>   19.8389    0.0000 </r>
       <r>   19.8395    0.0000 </r>
       <r>   19.8395    0.0000 </r>
       <r>   21.9378    0.0000 </r>
       <r>   21.9378    0.0000 </r>
       <r>   24.9678    0.0000 </r>
       <r>   24.9738    0.0000 </r>
      </set>
      <set comment="kpoint 4">
       <r>  -34.9923    1.0000 </r>
       <r>  -34.9923    1.0000 </r>
       <r>  -11.9284    1.0000 </r>
       <r>  -11.9284    1.0000 </r>
       <r>  -10.9157    1.0000 </r>
       <r>  -10.9157    1.0000 </r>
       <r>  -10.8524    1.0000 </r>
       <r>  -10.8524    1.0000 </r>
       <r>    7.5952    0.0000 </r>
       <r>    7.5952    0.0000 </r>
       <r>    7.7956    0.0000 </r>
       <r>    7.7956    0.0000 </r>
       <r>   19.3521    0.0000 </r>
       <r>   19.3521    0.0000 </r>
       <r>   19.3523    0.0000 </r>
       <r>   19.3523    0.0000 </r>
       <r>   21.6460    0.0000 </r>
       <r>   21.6460    0.0000 </r>
       <r>   25.3037    0.0000 </r>
       <r>   25.3061    0.0000 </r>
      </set>
      <set comment="kpoint 5">
       <r>  -35.0140    1.0000 </r>
       <r>  -35.0140    1.0000 </r>
       <r>  -11.4759    1.0000 </r>
       <r>  -11.4759    1.0000 </r>
       <r>  -10.8282    1.0000 </r>
       <r>  -10.8282    1.0000 </r>
       <r>  -10.7663    1.0000 </r>
       <r>  -10.7663    1.0000 </r>
       <r>    4.4915    0.0000 </r>
       <r>    4.4915    0.0000 </r>
       <r>   11.7351    0.0000 </r>
       <r>   11.7351    0.0000 </r>
       <r>   19.8389    0.0000 </r>
       <r>   19.8389    0.0000 </r>
       <r>   19.8395    0.0000 </r>
       <r>   19.8395    0.0000 </r>
       <r>   21.9378    0.0000 </r>
       <r>   21.9378    0.0000 </r>
       <r>   24.9692    0.0000 </r>
       <r>   24.9696    0.0000 </r>
      </set>
      <set comment="kpoint 6">
       <r>  -35.0557    1.0000 </r>
       <r>  -35.0557    1.0000 </r>
       <r>  -10.8884    1.0000 </r>
       <r>  -10.8884    1.0000 </r>
       <r>  -10.4171    1.0000 </r>
       <r>  -10.4171    1.0000 </r>
       <r>  -10.3588    1.0000 </r>
       <r>  -10.3588    1.0000 </r>
       <r>    2.1428    0.0000 </r>
       <r>    2.1428    0.0000 </r>
       <r>   16.5141    0.0000 </r>
       <r>   16.5141    0.0000 </r>
       <r>   20.7218    0.0000 </r>
       <r>   20.7218    0.0000 </r>
       <r>   20.7232    0.0000 </r>
       <r>   20.7232    0.0000 </r>
       <r>   23.3328    0.0000 </r>
       <r>   23.3328    0.0000 </r>
       <r>   24.8899    0.0000 </r>
       <r>   24.8900    0.0000 </r>
      </set>
      <set comment="kpoint 7">
       <r>  -35.0557    1.0000 </r>
       <r>  -35.0557    1.0000 </r>
       <r>  -10.8884    1.0000 </r>
       <r>  -10.8884    1.0000 </r>
       <r>  -10.4171    1.0000 </r>
       <r>  -10.4171    1.0000 </r>
       <r>  -10.3588    1.0000 </r>
       <r>  -10.3588    1.0000 </r>
       <r>    2.1428    0.0000 </r>
       <r>    2.1428    0.0000 </r>
       <r>   16.5141    0.0000 </r>
       <r>   16.5141    0.0000 </r>
       <r>   20.7218    0.0000 </r>
       <r>   20.7218    0.0000 </r>
       <r>   20.7232    0.0000 </r>
       <r>   20.7232    0.0000 </r>
       <r>   23.3328    0.0000 </r>
       <r>   23.3328    0.0000 </r>
       <r>   24.8899    0.0000 </r>
       <r>   24.8900    0.0000 </r>
      </set>
      <set comment="kpoint 8">
       <r>  -35.0555    1.0000 </r>
       <r>  -35.0555    1.0000 </r>
       <r>  -10.8806    1.0000 </r>
       <r>  -10.8806    1.0000 </r>
       <r>  -10.6519    1.0000 </r>
       <r>  -10.6519    1.0000 </r>
       <r>  -10.5973    1.0000 </r>
       <r>  -10.5973    1.0000 </r>
       <r>    2.4327    0.0000 </r>
       <r>    2.4327    0.0000 </r>
       <r>   17.1827    0.0000 </r>
       <r>   17.1827    0.0000 </r>
       <r>   19.7018    0.0000 </r>
       <r>   19.7018    0.0000 </r>
       <r>   19.7075    0.0000 </r>
       <r>   19.7075    0.0000 </r>
       <r>   19.8771    0.0000 </r>
       <r>   19.8771    0.0000 </r>
       <r>   27.7076    0.0000 </r>
       <r>   27.7076    0.0000 </r>
      </set>
      <set comment="kpoint 9">
       <r>  -35.0123    1.0000 </r>
       <r>  -35.0123    1.0000 </r>
       <r>  -11.3445    1.0000 </r>
       <r>  -11.3445    1.0000 </r>
       <r>  -10.8346    1.0000 </r>
       <r>  -10.8346    1.0000 </r>
       <r>  -10.7709    1.0000 </r>
       <r>  -10.7709    1.0000 </r>
       <r>    4.2445    0.0000 </r>
       <r>    4.2445    0.0000 </r>
       <r>   13.5650    0.0000 </r>
       <r>   13.5650    0.0000 </r>
       <r>   16.8365    0.0000 </r>
       <r>   16.8365    0.0000 </r>
       <r>   19.0859    0.0000 </r>
       <r>   19.0859    0.0000 </r>
       <r>   20.9389    0.0000 </r>
       <r>   20.9389    0.0000 </r>
       <r>   27.0705    0.0000 </r>
       <r>   27.0705    0.0000 </r>
      </set>
      <set comment="kpoint 10">
       <r>  -34.9600    1.0000 </r>
       <r>  -34.9600    1.0000 </r>
       <r>  -11.6614    1.0000 </r>
       <r>  -11.6614    1.0000 </r>
       <r>  -10.7201    1.0000 </r>
       <r>  -10.7201    1.0000 </r>
       <r>  -10.6598    1.0000 </r>
       <r>  -10.6598    1.0000 </r>
       <r>    7.1111    0.0000 </r>
       <r>    7.1111    0.0000 </r>
       <r>    9.5574    0.0000 </r>
       <r>    9.5574    0.0000 </r>
       <r>   15.6385    0.0000 </r>
       <r>   15.6385    0.0000 </r>
       <r>   18.9722    0.0000 </r>
       <r>   18.9722    0.0000 </r>
       <r>   21.8359    0.0000 </r>
       <r>   21.8359    0.0000 </r>
       <r>   26.9736    0.0000 </r>
       <r>   26.9736    0.0000 </r>
      </set>
      <set comment="kpoint 11">
       <r>  -34.9795    1.0000 </r>
       <r>  -34.9795    1.0000 </r>
       <r>  -11.6154    1.0000 </r>
       <r>  -11.6154    1.0000 </r>
       <r>  -10.9164    1.0000 </r>
       <r>  -10.9164    1.0000 </r>
       <r>  -10.7084    1.0000 </r>
       <r>  -10.7084    1.0000 </r>
       <r>    6.0631    0.0000 </r>
       <r>    6.0631    0.0000 </r>
       <r>   10.8340    0.0000 </r>
       <r>   10.8340    0.0000 </r>
       <r>   15.2737    0.0000 </r>
       <r>   15.2737    0.0000 </r>
       <r>   19.6649    0.0000 </r>
       <r>   19.6649    0.0000 </r>
       <r>   23.2010    0.0000 </r>
       <r>   23.2010    0.0000 </r>
       <r>   25.1496    0.0000 </r>
       <r>   25.1496    0.0000 </r>
      </set>
      <set comment="kpoint 12">
       <r>  -35.0272    1.0000 </r>
       <r>  -35.0272    1.0000 </r>
       <r>  -11.1961    1.0000 </r>
       <r>  -11.1961    1.0000 </r>
       <r>  -10.7615    1.0000 </r>
       <r>  -10.7615    1.0000 </r>
       <r>  -10.5626    1.0000 </r>
       <r>  -10.5626    1.0000 </r>
       <r>    3.5074    0.0000 </r>
       <r>    3.5074    0.0000 </r>
       <r>   14.6326    0.0000 </r>
       <r>   14.6326    0.0000 </r>
       <r>   16.5228    0.0000 </r>
       <r>   16.5228    0.0000 </r>
       <r>   21.4995    0.0000 </r>
       <r>   21.4995    0.0000 </r>
       <r>   22.7460    0.0000 </r>
       <r>   22.7460    0.0000 </r>
       <r>   24.5474    0.0000 </r>
       <r>   24.5474    0.0000 </r>
      </set>
      <set comment="kpoint 13">
       <r>  -35.0140    1.0000 </r>
       <r>  -35.0140    1.0000 </r>
       <r>  -11.4759    1.0000 </r>
       <r>  -11.4759    1.0000 </r>
       <r>  -10.8282    1.0000 </r>
       <r>  -10.8282    1.0000 </r>
       <r>  -10.7663    1.0000 </r>
       <r>  -10.7663    1.0000 </r>
       <r>    4.4915    0.0000 </r>
       <r>    4.4915    0.0000 </r>
       <r>   11.7351    0.0000 </r>
       <r>   11.7351    0.0000 </r>
       <r>   19.8389    0.0000 </r>
       <r>   19.8389    0.0000 </r>
       <r>   19.8395    0.0000 </r>
       <r>   19.8395    0.0000 </r>
       <r>   21.9378    0.0000 </r>
       <r>   21.9378    0.0000 </r>
       <r>   24.9683    0.0000 </r>
       <r>   24.9700    0.0000 </r>
      </set>
      <set comment="kpoint 14">
       <r>  -35.0123    1.0000 </r>
       <r>  -35.0123    1.0000 </r>
       <r>  -11.3445    1.0000 </r>
       <r>  -11.3445    1.0000 </r>
       <r>  -10.8346    1.0000 </r>
       <r>  -10.8346    1.0000 </r>
       <r>  -10.7709    1.0000 </r>
       <r>  -10.7709    1.0000 </r>
       <r>    4.2445    0.0000 </r>
       <r>    4.2445    0.0000 </r>
       <r>   13.5650    0.0000 </r>
       <r>   13.5650    0.0000 </r>
       <r>   16.8365    0.0000 </r>
       <r>   16.8365    0.0000 </r>
       <r>   19.0859    0.0000 </r>
       <r>   19.0859    0.0000 </r>
       <r>   20.9389    0.0000 </r>
       <r>   20.9389    0.0000 </r>
       <r>   27.0705    0.0000 </r>
       <r>   27.0705    0.0000 </r>
      </set>
      <set comment="kpoint 15">
       <r>  -34.9796    1.0000 </r>
       <r>  -34.9796    1.0000 </r>
       <r>  -11.4317    1.0000 </r>
       <r>  -11.4317    1.0000 </r>
       <r>  -10.8513    1.0000 </r>
       <r>  -10.8513    1.0000 </r>
       <r>  -10.7922    1.0000 </r>
       <r>  -10.7922    1.0000 </r>
       <r>    5.3736    0.0000 </r>
       <r>    5.3736    0.0000 </r>
       <r>   13.9101    0.0000 </r>
       <r>   13.9101    0.0000 </r>
       <r>   14.4082    0.0000 </r>
       <r>   14.4082    0.0000 </r>
       <r>   18.5456    0.0000 </r>
       <r>   18.5456    0.0000 </r>
       <r>   18.5576    0.0000 </r>
       <r>   18.5576    0.0000 </r>
       <r>   25.0782    0.0000 </r>
       <r>   25.0782    0.0000 </r>
      </set>
      <set comment="kpoint 16">
       <r>  -34.9455    1.0000 </r>
       <r>  -34.9455    1.0000 </r>
       <r>  -11.4697    1.0000 </r>
       <r>  -11.4697    1.0000 </r>
       <r>  -10.9698    1.0000 </r>
       <r>  -10.9698    1.0000 </r>
       <r>  -10.9115    1.0000 </r>
       <r>  -10.9115    1.0000 </r>
       <r>    7.6089    0.0000 </r>
       <r>    7.6089    0.0000 </r>
       <r>   11.4811    0.0000 </r>
       <r>   11.4811    0.0000 </r>
       <r>   12.7145    0.0000 </r>
       <r>   12.7145    0.0000 </r>
       <r>   18.3871    0.0000 </r>
       <r>   18.3871    0.0000 </r>
       <r>   18.8739    0.0000 </r>
       <r>   18.8739    0.0000 </r>
       <r>   26.0717    0.0000 </r>
       <r>   26.0717    0.0000 </r>
      </set>
      <set comment="kpoint 17">
       <r>  -34.9482    1.0000 </r>
       <r>  -34.9482    1.0000 </r>
       <r>  -11.3689    1.0000 </r>
       <r>  -11.3689    1.0000 </r>
       <r>  -11.2642    1.0000 </r>
       <r>  -11.2642    1.0000 </r>
       <r>  -10.8811    1.0000 </r>
       <r>  -10.8811    1.0000 </r>
       <r>    8.4925    0.0000 </r>
       <r>    8.4925    0.0000 </r>
       <r>   10.9695    0.0000 </r>
       <r>   10.9695    0.0000 </r>
       <r>   11.3909    0.0000 </r>
       <r>   11.3909    0.0000 </r>
       <r>   18.7801    0.0000 </r>
       <r>   18.7801    0.0000 </r>
       <r>   20.3752    0.0000 </r>
       <r>   20.3752    0.0000 </r>
       <r>   28.2523    0.0000 </r>
       <r>   28.2523    0.0000 </r>
      </set>
      <set comment="kpoint 18">
       <r>  -34.9795    1.0000 </r>
       <r>  -34.9795    1.0000 </r>
       <r>  -11.6154    1.0000 </r>
       <r>  -11.6154    1.0000 </r>
       <r>  -10.9164    1.0000 </r>
       <r>  -10.9164    1.0000 </r>
       <r>  -10.7084    1.0000 </r>
       <r>  -10.7084    1.0000 </r>
       <r>    6.0631    0.0000 </r>
       <r>    6.0631    0.0000 </r>
       <r>   10.8340    0.0000 </r>
       <r>   10.8340    0.0000 </r>
       <r>   15.2737    0.0000 </r>
       <r>   15.2737    0.0000 </r>
       <r>   19.6649    0.0000 </r>
       <r>   19.6649    0.0000 </r>
       <r>   23.2010    0.0000 </r>
       <r>   23.2010    0.0000 </r>
       <r>   25.1496    0.0000 </r>
       <r>   25.1496    0.0000 </r>
      </set>
      <set comment="kpoint 19">
       <r>  -34.9923    1.0000 </r>
       <r>  -34.9923    1.0000 </r>
       <r>  -11.9284    1.0000 </r>
       <r>  -11.9284    1.0000 </r>
       <r>  -10.9157    1.0000 </r>
       <r>  -10.9157    1.0000 </r>
       <r>  -10.8524    1.0000 </r>
       <r>  -10.8524    1.0000 </r>
       <r>    7.5952    0.0000 </r>
       <r>    7.5952    0.0000 </r>
       <r>    7.7956    0.0000 </r>
       <r>    7.7956    0.0000 </r>
       <r>   19.3521    0.0000 </r>
       <r>   19.3521    0.0000 </r>
       <r>   19.3523    0.0000 </r>
       <r>   19.3523    0.0000 </r>
       <r>   21.6460    0.0000 </r>
       <r>   21.6460    0.0000 </r>
       <r>   25.3035    0.0000 </r>
       <r>   25.3049    0.0000 </r>
      </set>
      <set comment="kpoint 20">
       <r>  -34.9600    1.0000 </r>
       <r>  -34.9600    1.0000 </r>
       <r>  -11.6614    1.0000 </r>
       <r>  -11.6614    1.0000 </r>
       <r>  -10.7201    1.0000 </r>
       <r>  -10.7201    1.0000 </r>
       <r>  -10.6598    1.0000 </r>
       <r>  -10.6598    1.0000 </r>
       <r>    7.1111    0.0000 </r>
       <r>    7.1111    0.0000 </r>
       <r>    9.5574    0.0000 </r>
       <r>    9.5574    0.0000 </r>
       <r>   15.6385    0.0000 </r>
       <r>   15.6385    0.0000 </r>
       <r>   18.9722    0.0000 </r>
       <r>   18.9722    0.0000 </r>
       <r>   21.8359    0.0000 </r>
       <r>   21.8359    0.0000 </r>
       <r>   26.9736    0.0000 </r>
       <r>   26.9741    0.0000 </r>
      </set>
      <set comment="kpoint 21">
       <r>  -34.9455    1.0000 </r>
       <r>  -34.9455    1.0000 </r>
       <r>  -11.4697    1.0000 </r>
       <r>  -11.4697    1.0000 </r>
       <r>  -10.9698    1.0000 </r>
       <r>  -10.9698    1.0000 </r>
       <r>  -10.9115    1.0000 </r>
       <r>  -10.9115    1.0000 </r>
       <r>    7.6089    0.0000 </r>
       <r>    7.6089    0.0000 </r>
       <r>   11.4811    0.0000 </r>
       <r>   11.4811    0.0000 </r>
       <r>   12.7145    0.0000 </r>
       <r>   12.7145    0.0000 </r>
       <r>   18.3871    0.0000 </r>
       <r>   18.3871    0.0000 </r>
       <r>   18.8739    0.0000 </r>
       <r>   18.8739    0.0000 </r>
       <r>   26.0717    0.0000 </r>
       <r>   26.0717    0.0000 </r>
      </set>
      <set comment="kpoint 22">
       <r>  -34.9468    1.0000 </r>
       <r>  -34.9468    1.0000 </r>
       <r>  -11.7037    1.0000 </r>
       <r>  -11.7037    1.0000 </r>
       <r>  -11.0475    1.0000 </r>
       <r>  -11.0475    1.0000 </r>
       <r>  -10.9876    1.0000 </r>
       <r>  -10.9876    1.0000 </r>
       <r>    8.5938    0.0000 </r>
       <r>    8.5938    0.0000 </r>
       <r>    9.9118    0.0000 </r>
       <r>    9.9118    0.0000 </r>
       <r>   13.4740    0.0000 </r>
       <r>   13.4740    0.0000 </r>
       <r>   18.1672    0.0000 </r>
       <r>   18.1672    0.0000 </r>
       <r>   18.1820    0.0000 </r>
       <r>   18.1820    0.0000 </r>
       <r>   23.5819    0.0000 </r>
       <r>   23.5819    0.0000 </r>
      </set>
      <set comment="kpoint 23">
       <r>  -34.9455    1.0000 </r>
       <r>  -34.9455    1.0000 </r>
       <r>  -11.4697    1.0000 </r>
       <r>  -11.4697    1.0000 </r>
       <r>  -10.9698    1.0000 </r>
       <r>  -10.9698    1.0000 </r>
       <r>  -10.9115    1.0000 </r>
       <r>  -10.9115    1.0000 </r>
       <r>    7.6089    0.0000 </r>
       <r>    7.6089    0.0000 </r>
       <r>   11.4811    0.0000 </r>
       <r>   11.4811    0.0000 </r>
       <r>   12.7145    0.0000 </r>
       <r>   12.7145    0.0000 </r>
       <r>   18.3871    0.0000 </r>
       <r>   18.3871    0.0000 </r>
       <r>   18.8739    0.0000 </r>
       <r>   18.8739    0.0000 </r>
       <r>   26.0717    0.0000 </r>
       <r>   26.0717    0.0000 </r>
      </set>
      <set comment="kpoint 24">
       <r>  -34.9600    1.0000 </r>
       <r>  -34.9600    1.0000 </r>
       <r>  -11.6614    1.0000 </r>
       <r>  -11.6614    1.0000 </r>
       <r>  -10.7201    1.0000 </r>
       <r>  -10.7201    1.0000 </r>
       <r>  -10.6598    1.0000 </r>
       <r>  -10.6598    1.0000 </r>
       <r>    7.1111    0.0000 </r>
       <r>    7.1111    0.0000 </r>
       <r>    9.5574    0.0000 </r>
       <r>    9.5574    0.0000 </r>
       <r>   15.6385    0.0000 </r>
       <r>   15.6385    0.0000 </r>
       <r>   18.9722    0.0000 </r>
       <r>   18.9722    0.0000 </r>
       <r>   21.8359    0.0000 </r>
       <r>   21.8359    0.0000 </r>
       <r>   26.9736    0.0000 </r>
       <r>   26.9941    0.0000 </r>
      </set>
      <set comment="kpoint 25">
       <r>  -35.0140    1.0000 </r>
       <r>  -35.0140    1.0000 </r>
       <r>  -11.4759    1.0000 </r>
       <r>  -11.4759    1.0000 </r>
       <r>  -10.8282    1.0000 </r>
       <r>  -10.8282    1.0000 </r>
       <r>  -10.7663    1.0000 </r>
       <r>  -10.7663    1.0000 </r>
       <r>    4.4915    0.0000 </r>
       <r>    4.4915    0.0000 </r>
       <r>   11.7351    0.0000 </r>
       <r>   11.7351    0.0000 </r>
       <r>   19.8389    0.0000 </r>
       <r>   19.8389    0.0000 </r>
       <r>   19.8395    0.0000 </r>
       <r>   19.8395    0.0000 </r>
       <r>   21.9378    0.0000 </r>
       <r>   21.9378    0.0000 </r>
       <r>   24.9684    0.0000 </r>
       <r>   24.9706    0.0000 </r>
      </set>
      <set comment="kpoint 26">
       <r>  -34.9795    1.0000 </r>
       <r>  -34.9795    1.0000 </r>
       <r>  -11.6154    1.0000 </r>
       <r>  -11.6154    1.0000 </r>
       <r>  -10.9164    1.0000 </r>
       <r>  -10.9164    1.0000 </r>
       <r>  -10.7084    1.0000 </r>
       <r>  -10.7084    1.0000 </r>
       <r>    6.0631    0.0000 </r>
       <r>    6.0631    0.0000 </r>
       <r>   10.8340    0.0000 </r>
       <r>   10.8340    0.0000 </r>
       <r>   15.2737    0.0000 </r>
       <r>   15.2737    0.0000 </r>
       <r>   19.6649    0.0000 </r>
       <r>   19.6649    0.0000 </r>
       <r>   23.2010    0.0000 </r>
       <r>   23.2010    0.0000 </r>
       <r>   25.1496    0.0000 </r>
       <r>   25.1496    0.0000 </r>
      </set>
      <set comment="kpoint 27">
       <r>  -34.9482    1.0000 </r>
       <r>  -34.9482    1.0000 </r>
       <r>  -11.3689    1.0000 </r>
       <r>  -11.3689    1.0000 </r>
       <r>  -11.2642    1.0000 </r>
       <r>  -11.2642    1.0000 </r>
       <r>  -10.8811    1.0000 </r>
       <r>  -10.8811    1.0000 </r>
       <r>    8.4925    0.0000 </r>
       <r>    8.4925    0.0000 </r>
       <r>   10.9695    0.0000 </r>
       <r>   10.9695    0.0000 </r>
       <r>   11.3909    0.0000 </r>
       <r>   11.3909    0.0000 </r>
       <r>   18.7801    0.0000 </r>
       <r>   18.7801    0.0000 </r>
       <r>   20.3752    0.0000 </r>
       <r>   20.3752    0.0000 </r>
       <r>   28.2523    0.0000 </r>
       <r>   28.2523    0.0000 </r>
      </set>
      <set comment="kpoint 28">
       <r>  -34.9455    1.0000 </r>
       <r>  -34.9455    1.0000 </r>
       <r>  -11.4697    1.0000 </r>
       <r>  -11.4697    1.0000 </r>
       <r>  -10.9698    1.0000 </r>
       <r>  -10.9698    1.0000 </r>
       <r>  -10.9115    1.0000 </r>
       <r>  -10.9115    1.0000 </r>
       <r>    7.6089    0.0000 </r>
       <r>    7.6089    0.0000 </r>
       <r>   11.4811    0.0000 </r>
       <r>   11.4811    0.0000 </r>
       <r>   12.7145    0.0000 </r>
       <r>   12.7145    0.0000 </r>
       <r>   18.3871    0.0000 </r>
       <r>   18.3871    0.0000 </r>
       <r>   18.8739    0.0000 </r>
       <r>   18.8739    0.0000 </r>
       <r>   26.0717    0.0000 </r>
       <r>   26.0717    0.0000 </r>
      </set>
      <set comment="kpoint 29">
       <r>  -34.9796    1.0000 </r>
       <r>  -34.9796    1.0000 </r>
       <r>  -11.4317    1.0000 </r>
       <r>  -11.4317    1.0000 </r>
       <r>  -10.8513    1.0000 </r>
       <r>  -10.8513    1.0000 </r>
       <r>  -10.7922    1.0000 </r>
       <r>  -10.7922    1.0000 </r>
       <r>    5.3736    0.0000 </r>
       <r>    5.3736    0.0000 </r>
       <r>   13.9101    0.0000 </r>
       <r>   13.9101    0.0000 </r>
       <r>   14.4082    0.0000 </r>
       <r>   14.4082    0.0000 </r>
       <r>   18.5456    0.0000 </r>
       <r>   18.5456    0.0000 </r>
       <r>   18.5576    0.0000 </r>
       <r>   18.5576    0.0000 </r>
       <r>   25.0782    0.0000 </r>
       <r>   25.0782    0.0000 </r>
      </set>
      <set comment="kpoint 30">
       <r>  -35.0123    1.0000 </r>
       <r>  -35.0123    1.0000 </r>
       <r>  -11.3445    1.0000 </r>
       <r>  -11.3445    1.0000 </r>
       <r>  -10.8346    1.0000 </r>
       <r>  -10.8346    1.0000 </r>
       <r>  -10.7709    1.0000 </r>
       <r>  -10.7709    1.0000 </r>
       <r>    4.2445    0.0000 </r>
       <r>    4.2445    0.0000 </r>
       <r>   13.5650    0.0000 </r>
       <r>   13.5650    0.0000 </r>
       <r>   16.8365    0.0000 </r>
       <r>   16.8365    0.0000 </r>
       <r>   19.0859    0.0000 </r>
       <r>   19.0859    0.0000 </r>
       <r>   20.9389    0.0000 </r>
       <r>   20.9389    0.0000 </r>
       <r>   27.0705    0.0000 </r>
       <r>   27.0705    0.0000 </r>
      </set>
      <set comment="kpoint 31">
       <r>  -35.0557    1.0000 </r>
       <r>  -35.0557    1.0000 </r>
       <r>  -10.8884    1.0000 </r>
       <r>  -10.8884    1.0000 </r>
       <r>  -10.4171    1.0000 </r>
       <r>  -10.4171    1.0000 </r>
       <r>  -10.3588    1.0000 </r>
       <r>  -10.3588    1.0000 </r>
       <r>    2.1428    0.0000 </r>
       <r>    2.1428    0.0000 </r>
       <r>   16.5141    0.0000 </r>
       <r>   16.5141    0.0000 </r>
       <r>   20.7218    0.0000 </r>
       <r>   20.7218    0.0000 </r>
       <r>   20.7232    0.0000 </r>
       <r>   20.7232    0.0000 </r>
       <r>   23.3328    0.0000 </r>
       <r>   23.3328    0.0000 </r>
       <r>   24.8899    0.0000 </r>
       <r>   24.8900    0.0000 </r>
      </set>
      <set comment="kpoint 32">
       <r>  -35.0272    1.0000 </r>
       <r>  -35.0272    1.0000 </r>
       <r>  -11.1961    1.0000 </r>
       <r>  -11.1961    1.0000 </r>
       <r>  -10.7615    1.0000 </r>
       <r>  -10.7615    1.0000 </r>
       <r>  -10.5626    1.0000 </r>
       <r>  -10.5626    1.0000 </r>
       <r>    3.5074    0.0000 </r>
       <r>    3.5074    0.0000 </r>
       <r>   14.6326    0.0000 </r>
       <r>   14.6326    0.0000 </r>
       <r>   16.5228    0.0000 </r>
       <r>   16.5228    0.0000 </r>
       <r>   21.4995    0.0000 </r>
       <r>   21.4995    0.0000 </r>
       <r>   22.7460    0.0000 </r>
       <r>   22.7460    0.0000 </r>
       <r>   24.5474    0.0000 </r>
       <r>   24.5474    0.0000 </r>
      </set>
      <set comment="kpoint 33">
       <r>  -34.9795    1.0000 </r>
       <r>  -34.9795    1.0000 </r>
       <r>  -11.6154    1.0000 </r>
       <r>  -11.6154    1.0000 </r>
       <r>  -10.9164    1.0000 </r>
       <r>  -10.9164    1.0000 </r>
       <r>  -10.7084    1.0000 </r>
       <r>  -10.7084    1.0000 </r>
       <r>    6.0631    0.0000 </r>
       <r>    6.0631    0.0000 </r>
       <r>   10.8340    0.0000 </r>
       <r>   10.8340    0.0000 </r>
       <r>   15.2737    0.0000 </r>
       <r>   15.2737    0.0000 </r>
       <r>   19.6649    0.0000 </r>
       <r>   19.6649    0.0000 </r>
       <r>   23.2010    0.0000 </r>
       <r>   23.2010    0.0000 </r>
       <r>   25.1496    0.0000 </r>
       <r>   25.1496    0.0000 </r>
      </set>
      <set comment="kpoint 34">
       <r>  -34.9600    1.0000 </r>
       <r>  -34.9600    1.0000 </r>
       <r>  -11.6614    1.0000 </r>
       <r>  -11.6614    1.0000 </r>
       <r>  -10.7201    1.0000 </r>
       <r>  -10.7201    1.0000 </r>
       <r>  -10.6598    1.0000 </r>
       <r>  -10.6598    1.0000 </r>
       <r>    7.1111    0.0000 </r>
       <r>    7.1111    0.0000 </r>
       <r>    9.5574    0.0000 </r>
       <r>    9.5574    0.0000 </r>
       <r>   15.6385    0.0000 </r>
       <r>   15.6385    0.0000 </r>
       <r>   18.9722    0.0000 </r>
       <r>   18.9722    0.0000 </r>
       <r>   21.8359    0.0000 </r>
       <r>   21.8359    0.0000 </r>
       <r>   26.9736    0.0000 </r>
       <r>   26.9749    0.0000 </r>
      </set>
      <set comment="kpoint 35">
       <r>  -35.0123    1.0000 </r>
       <r>  -35.0123    1.0000 </r>
       <r>  -11.3445    1.0000 </r>
       <r>  -11.3445    1.0000 </r>
       <r>  -10.8346    1.0000 </r>
       <r>  -10.8346    1.0000 </r>
       <r>  -10.7709    1.0000 </r>
       <r>  -10.7709    1.0000 </r>
       <r>    4.2445    0.0000 </r>
       <r>    4.2445    0.0000 </r>
       <r>   13.5650    0.0000 </r>
       <r>   13.5650    0.0000 </r>
       <r>   16.8365    0.0000 </r>
       <r>   16.8365    0.0000 </r>
       <r>   19.0859    0.0000 </r>
       <r>   19.0859    0.0000 </r>
       <r>   20.9389    0.0000 </r>
       <r>   20.9389    0.0000 </r>
       <r>   27.0705    0.0000 </r>
       <r>   27.0705    0.0000 </r>
      </set>
      <set comment="kpoint 36">
       <r>  -35.0555    1.0000 </r>
       <r>  -35.0555    1.0000 </r>
       <r>  -10.8806    1.0000 </r>
       <r>  -10.8806    1.0000 </r>
       <r>  -10.6519    1.0000 </r>
       <r>  -10.6519    1.0000 </r>
       <r>  -10.5973    1.0000 </r>
       <r>  -10.5973    1.0000 </r>
       <r>    2.4327    0.0000 </r>
       <r>    2.4327    0.0000 </r>
       <r>   17.1827    0.0000 </r>
       <r>   17.1827    0.0000 </r>
       <r>   19.7018    0.0000 </r>
       <r>   19.7018    0.0000 </r>
       <r>   19.7075    0.0000 </r>
       <r>   19.7075    0.0000 </r>
       <r>   19.8771    0.0000 </r>
       <r>   19.8771    0.0000 </r>
       <r>   27.7076    0.0000 </r>
       <r>   27.7076    0.0000 </r>
      </set>
      <set comment="kpoint 37">
       <r>  -35.0557    1.0000 </r>
       <r>  -35.0557    1.0000 </r>
       <r>  -10.8884    1.0000 </r>
       <r>  -10.8884    1.0000 </r>
       <r>  -10.4171    1.0000 </r>
       <r>  -10.4171    1.0000 </r>
       <r>  -10.3588    1.0000 </r>
       <r>  -10.3588    1.0000 </r>
       <r>    2.1428    0.0000 </r>
       <r>    2.1428    0.0000 </r>
       <r>   16.5141    0.0000 </r>
       <r>   16.5141    0.0000 </r>
       <r>   20.7218    0.0000 </r>
       <r>   20.7218    0.0000 </r>
       <r>   20.7232    0.0000 </r>
       <r>   20.7232    0.0000 </r>
       <r>   23.3328    0.0000 </r>
       <r>   23.3328    0.0000 </r>
       <r>   24.8899    0.0000 </r>
       <r>   24.8900    0.0000 </r>
      </set>
      <set comment="kpoint 38">
       <r>  -35.0555    1.0000 </r>
       <r>  -35.0555    1.0000 </r>
       <r>  -10.8806    1.0000 </r>
       <r>  -10.8806    1.0000 </r>
       <r>  -10.6519    1.0000 </r>
       <r>  -10.6519    1.0000 </r>
       <r>  -10.5973    1.0000 </r>
       <r>  -10.5973    1.0000 </r>
       <r>    2.4327    0.0000 </r>
       <r>    2.4327    0.0000 </r>
       <r>   17.1827    0.0000 </r>
       <r>   17.1827    0.0000 </r>
       <r>   19.7018    0.0000 </r>
       <r>   19.7018    0.0000 </r>
       <r>   19.7075    0.0000 </r>
       <r>   19.7075    0.0000 </r>
       <r>   19.8771    0.0000 </r>
       <r>   19.8771    0.0000 </r>
       <r>   27.7076    0.0000 </r>
       <r>   27.7076    0.0000 </r>
      </set>
      <set comment="kpoint 39">
       <r>  -35.0123    1.0000 </r>
       <r>  -35.0123    1.0000 </r>
       <r>  -11.3445    1.0000 </r>
       <r>  -11.3445    1.0000 </r>
       <r>  -10.8346    1.0000 </r>
       <r>  -10.8346    1.0000 </r>
       <r>  -10.7709    1.0000 </r>
       <r>  -10.7709    1.0000 </r>
       <r>    4.2445    0.0000 </r>
       <r>    4.2445    0.0000 </r>
       <r>   13.5650    0.0000 </r>
       <r>   13.5650    0.0000 </r>
       <r>   16.8365    0.0000 </r>
       <r>   16.8365    0.0000 </r>
       <r>   19.0859    0.0000 </r>
       <r>   19.0859    0.0000 </r>
       <r>   20.9389    0.0000 </r>
       <r>   20.9389    0.0000 </r>
       <r>   27.0705    0.0000 </r>
       <r>   27.0705    0.0000 </r>
      </set>
      <set comment="kpoint 40">
       <r>  -34.9600    1.0000 </r>
       <r>  -34.9600    1.0000 </r>
       <r>  -11.6614    1.0000 </r>
       <r>  -11.6614    1.0000 </r>
       <r>  -10.7201    1.0000 </r>
       <r>  -10.7201    1.0000 </r>
       <r>  -10.6598    1.0000 </r>
       <r>  -10.6598    1.0000 </r>
       <r>    7.1111    0.0000 </r>
       <r>    7.1111    0.0000 </r>
       <r>    9.5574    0.0000 </r>
       <r>    9.5574    0.0000 </r>
       <r>   15.6385    0.0000 </r>
       <r>   15.6385    0.0000 </r>
       <r>   18.9722    0.0000 </r>
       <r>   18.9722    0.0000 </r>
       <r>   21.8359    0.0000 </r>
       <r>   21.8359    0.0000 </r>
       <r>   26.9736    0.0000 </r>
       <r>   26.9795    0.0000 </r>
      </set>
      <set comment="kpoint 41">
       <r>  -34.9795    1.0000 </r>
       <r>  -34.9795    1.0000 </r>
       <r>  -11.6154    1.0000 </r>
       <r>  -11.6154    1.0000 </r>
       <r>  -10.9164    1.0000 </r>
       <r>  -10.9164    1.0000 </r>
       <r>  -10.7084    1.0000 </r>
       <r>  -10.7084    1.0000 </r>
       <r>    6.0631    0.0000 </r>
       <r>    6.0631    0.0000 </r>
       <r>   10.8340    0.0000 </r>
       <r>   10.8340    0.0000 </r>
       <r>   15.2737    0.0000 </r>
       <r>   15.2737    0.0000 </r>
       <r>   19.6649    0.0000 </r>
       <r>   19.6649    0.0000 </r>
       <r>   23.2010    0.0000 </r>
       <r>   23.2010    0.0000 </r>
       <r>   25.1495    0.0000 </r>
       <r>   25.1495    0.0000 </r>
      </set>
      <set comment="kpoint 42">
       <r>  -35.0272    1.0000 </r>
       <r>  -35.0272    1.0000 </r>
       <r>  -11.1961    1.0000 </r>
       <r>  -11.1961    1.0000 </r>
       <r>  -10.7615    1.0000 </r>
       <r>  -10.7615    1.0000 </r>
       <r>  -10.5626    1.0000 </r>
       <r>  -10.5626    1.0000 </r>
       <r>    3.5074    0.0000 </r>
       <r>    3.5074    0.0000 </r>
       <r>   14.6326    0.0000 </r>
       <r>   14.6326    0.0000 </r>
       <r>   16.5228    0.0000 </r>
       <r>   16.5228    0.0000 </r>
       <r>   21.4995    0.0000 </r>
       <r>   21.4995    0.0000 </r>
       <r>   22.7460    0.0000 </r>
       <r>   22.7460    0.0000 </r>
       <r>   24.5474    0.0000 </r>
       <r>   24.5474    0.0000 </r>
      </set>
      <set comment="kpoint 43">
       <r>  -35.0555    1.0000 </r>
       <r>  -35.0555    1.0000 </r>
       <r>  -10.8806    1.0000 </r>
       <r>  -10.8806    1.0000 </r>
       <r>  -10.6519    1.0000 </r>
       <r>  -10.6519    1.0000 </r>
       <r>  -10.5973    1.0000 </r>
       <r>  -10.5973    1.0000 </r>
       <r>    2.4327    0.0000 </r>
       <r>    2.4327    0.0000 </r>
       <r>   17.1827    0.0000 </r>
       <r>   17.1827    0.0000 </r>
       <r>   19.7018    0.0000 </r>
       <r>   19.7018    0.0000 </r>
       <r>   19.7075    0.0000 </r>
       <r>   19.7075    0.0000 </r>
       <r>   19.8771    0.0000 </r>
       <r>   19.8771    0.0000 </r>
       <r>   27.7076    0.0000 </r>
       <r>   27.7076    0.0000 </r>
      </set>
      <set comment="kpoint 44">
       <r>  -35.0557    1.0000 </r>
       <r>  -35.0557    1.0000 </r>
       <r>  -10.8884    1.0000 </r>
       <r>  -10.8884    1.0000 </r>
       <r>  -10.4171    1.0000 </r>
       <r>  -10.4171    1.0000 </r>
       <r>  -10.3588    1.0000 </r>
       <r>  -10.3588    1.0000 </r>
       <r>    2.1428    0.0000 </r>
       <r>    2.1428    0.0000 </r>
       <r>   16.5141    0.0000 </r>
       <r>   16.5141    0.0000 </r>
       <r>   20.7218    0.0000 </r>
       <r>   20.7218    0.0000 </r>
       <r>   20.7232    0.0000 </r>
       <r>   20.7232    0.0000 </r>
       <r>   23.3328    0.0000 </r>
       <r>   23.3328    0.0000 </r>
       <r>   24.8899    0.0000 </r>
       <r>   24.8900    0.0000 </r>
      </set>
      <set comment="kpoint 45">
       <r>  -35.0272    1.0000 </r>
       <r>  -35.0272    1.0000 </r>
       <r>  -11.1961    1.0000 </r>
       <r>  -11.1961    1.0000 </r>
       <r>  -10.7615    1.0000 </r>
       <r>  -10.7615    1.0000 </r>
       <r>  -10.5626    1.0000 </r>
       <r>  -10.5626    1.0000 </r>
       <r>    3.5074    0.0000 </r>
       <r>    3.5074    0.0000 </r>
       <r>   14.6326    0.0000 </r>
       <r>   14.6326    0.0000 </r>
       <r>   16.5228    0.0000 </r>
       <r>   16.5228    0.0000 </r>
       <r>   21.4995    0.0000 </r>
       <r>   21.4995    0.0000 </r>
       <r>   22.7460    0.0000 </r>
       <r>   22.7460    0.0000 </r>
       <r>   24.5474    0.0000 </r>
       <r>   24.5474    0.0000 </r>
      </set>
      <set comment="kpoint 46">
       <r>  -34.9795    1.0000 </r>
       <r>  -34.9795    1.0000 </r>
       <r>  -11.6154    1.0000 </r>
       <r>  -11.6154    1.0000 </r>
       <r>  -10.9164    1.0000 </r>
       <r>  -10.9164    1.0000 </r>
       <r>  -10.7084    1.0000 </r>
       <r>  -10.7084    1.0000 </r>
       <r>    6.0631    0.0000 </r>
       <r>    6.0631    0.0000 </r>
       <r>   10.8340    0.0000 </r>
       <r>   10.8340    0.0000 </r>
       <r>   15.2737    0.0000 </r>
       <r>   15.2737    0.0000 </r>
       <r>   19.6649    0.0000 </r>
       <r>   19.6649    0.0000 </r>
       <r>   23.2009    0.0000 </r>
       <r>   23.2009    0.0000 </r>
       <r>   25.1496    0.0000 </r>
       <r>   25.1496    0.0000 </r>
      </set>
      <set comment="kpoint 47">
       <r>  -34.9600    1.0000 </r>
       <r>  -34.9600    1.0000 </r>
       <r>  -11.6614    1.0000 </r>
       <r>  -11.6614    1.0000 </r>
       <r>  -10.7201    1.0000 </r>
       <r>  -10.7201    1.0000 </r>
       <r>  -10.6598    1.0000 </r>
       <r>  -10.6598    1.0000 </r>
       <r>    7.1111    0.0000 </r>
       <r>    7.1111    0.0000 </r>
       <r>    9.5574    0.0000 </r>
       <r>    9.5574    0.0000 </r>
       <r>   15.6385    0.0000 </r>
       <r>   15.6385    0.0000 </r>
       <r>   18.9722    0.0000 </r>
       <r>   18.9722    0.0000 </r>
       <r>   21.8358    0.0000 </r>
       <r>   21.8358    0.0000 </r>
       <r>   26.9736    0.0000 </r>
       <r>   26.9737    0.0000 </r>
      </set>
      <set comment="kpoint 48">
       <r>  -35.0123    1.0000 </r>
       <r>  -35.0123    1.0000 </r>
       <r>  -11.3445    1.0000 </r>
       <r>  -11.3445    1.0000 </r>
       <r>  -10.8346    1.0000 </r>
       <r>  -10.8346    1.0000 </r>
       <r>  -10.7709    1.0000 </r>
       <r>  -10.7709    1.0000 </r>
       <r>    4.2445    0.0000 </r>
       <r>    4.2445    0.0000 </r>
       <r>   13.5650    0.0000 </r>
       <r>   13.5650    0.0000 </r>
       <r>   16.8365    0.0000 </r>
       <r>   16.8365    0.0000 </r>
       <r>   19.0859    0.0000 </r>
       <r>   19.0859    0.0000 </r>
       <r>   20.9389    0.0000 </r>
       <r>   20.9389    0.0000 </r>
       <r>   27.0705    0.0000 </r>
       <r>   27.0705    0.0000 </r>
      </set>
      <set comment="kpoint 49">
       <r>  -35.0123    1.0000 </r>
       <r>  -35.0123    1.0000 </r>
       <r>  -11.3445    1.0000 </r>
       <r>  -11.3445    1.0000 </r>
       <r>  -10.8346    1.0000 </r>
       <r>  -10.8346    1.0000 </r>
       <r>  -10.7709    1.0000 </r>
       <r>  -10.7709    1.0000 </r>
       <r>    4.2445    0.0000 </r>
       <r>    4.2445    0.0000 </r>
       <r>   13.5650    0.0000 </r>
       <r>   13.5650    0.0000 </r>
       <r>   16.8365    0.0000 </r>
       <r>   16.8365    0.0000 </r>
       <r>   19.0859    0.0000 </r>
       <r>   19.0859    0.0000 </r>
       <r>   20.9389    0.0000 </r>
       <r>   20.9389    0.0000 </r>
       <r>   27.0705    0.0000 </r>
       <r>   27.0705    0.0000 </r>
      </set>
      <set comment="kpoint 50">
       <r>  -35.0272    1.0000 </r>
       <r>  -35.0272    1.0000 </r>
       <r>  -11.1961    1.0000 </r>
       <r>  -11.1961    1.0000 </r>
       <r>  -10.7615    1.0000 </r>
       <r>  -10.7615    1.0000 </r>
       <r>  -10.5626    1.0000 </r>
       <r>  -10.5626    1.0000 </r>
       <r>    3.5074    0.0000 </r>
       <r>    3.5074    0.0000 </r>
       <r>   14.6326    0.0000 </r>
       <r>   14.6326    0.0000 </r>
       <r>   16.5228    0.0000 </r>
       <r>   16.5228    0.0000 </r>
       <r>   21.4995    0.0000 </r>
       <r>   21.4995    0.0000 </r>
       <r>   22.7460    0.0000 </r>
       <r>   22.7460    0.0000 </r>
       <r>   24.5474    0.0000 </r>
       <r>   24.5474    0.0000 </r>
      </set>
      <set comment="kpoint 51">
       <r>  -35.0123    1.0000 </r>
       <r>  -35.0123    1.0000 </r>
       <r>  -11.3445    1.0000 </r>
       <r>  -11.3445    1.0000 </r>
       <r>  -10.8346    1.0000 </r>
       <r>  -10.8346    1.0000 </r>
       <r>  -10.7709    1.0000 </r>
       <r>  -10.7709    1.0000 </r>
       <r>    4.2445    0.0000 </r>
       <r>    4.2445    0.0000 </r>
       <r>   13.5650    0.0000 </r>
       <r>   13.5650    0.0000 </r>
       <r>   16.8366    0.0000 </r>
       <r>   16.8366    0.0000 </r>
       <r>   19.0859    0.0000 </r>
       <r>   19.0859    0.0000 </r>
       <r>   20.9389    0.0000 </r>
       <r>   20.9389    0.0000 </r>
       <r>   27.0705    0.0000 </r>
       <r>   27.0705    0.0000 </r>
      </set>
[...]
       <r>    11.2088     0.0000     0.0000 </r>
       <r>    11.4411     0.0000     0.0000 </r>
       <r>    11.6734     0.0000     0.0000 </r>
       <r>    11.9057     0.0000     0.0000 </r>
       <r>    12.1381     0.0000     0.0000 </r>
       <r>    12.3704     0.0000     0.0000 </r>
       <r>    12.6027     0.0000     0.0000 </r>
       <r>    12.8350     0.0000     0.0000 </r>
       <r>    13.0673     0.0000     0.0000 </r>
       <r>    13.2996     0.0000     0.0000 </r>
       <r>    13.5319     0.0000     0.0000 </r>
       <r>    13.7643     0.0000     0.0000 </r>
       <r>    13.9966     0.0000     0.0000 </r>
       <r>    14.2289     0.0000     0.0000 </r>
       <r>    14.4612     0.0000     0.0000 </r>
       <r>    14.6935     0.0000     0.0000 </r>
       <r>    14.9258     0.0000     0.0000 </r>
       <r>    15.1581     0.0000     0.0000 </r>
       <r>    15.3905     0.0000     0.0000 </r>
       <r>    15.6228     0.0000     0.0000 </r>
       <r>    15.8551     0.0000     0.0000 </r>
       <r>    16.0874     0.0000     0.0000 </r>
       <r>    16.3197     0.0000     0.0000 </r>
       <r>    16.5520     0.0000     0.0000 </r>
       <r>    16.7844     0.0000     0.0000 </r>
       <r>    17.0167     0.0000     0.0000 </r>
       <r>    17.2490     0.0000     0.0000 </r>
       <r>    17.4813     0.0000     0.0000 </r>
       <r>    17.7136     0.0000     0.0000 </r>
       <r>    17.9459     0.0000     0.0000 </r>
       <r>    18.1782     0.0000     0.0000 </r>
       <r>    18.4106     0.0000     0.0000 </r>
       <r>    18.6429     0.0000     0.0000 </r>
       <r>    18.8752     0.0000     0.0000 </r>
       <r>    19.1075     0.0000     0.0000 </r>
       <r>    19.3398     0.0000     0.0000 </r>
       <r>    19.5721     0.0000     0.0000 </r>
       <r>    19.8045     0.0000     0.0000 </r>
       <r>    20.0368     0.0000     0.0000 </r>
       <r>    20.2691     0.0000     0.0000 </r>
       <r>    20.5014     0.0000     0.0000 </r>
       <r>    20.7337     0.0000     0.0000 </r>
       <r>    20.9660     0.0000     0.0000 </r>
       <r>    21.1983     0.0000     0.0000 </r>
       <r>    21.4307     0.0000     0.0000 </r>
       <r>    21.6630     0.0000     0.0000 </r>
       <r>    21.8953     0.0000     0.0000 </r>
       <r>    22.1276     0.0000     0.0000 </r>
       <r>    22.3599     0.0000     0.0000 </r>
       <r>    22.5922     0.0000     0.0000 </r>
       <r>    22.8246     0.0000     0.0000 </r>
       <r>    23.0569     0.0000     0.0000 </r>
       <r>    23.2892     0.0000     0.0000 </r>
       <r>    23.5215     0.0000     0.0000 </r>
       <r>    23.7538     0.0000     0.0000 </r>
       <r>    23.9861     0.0000     0.0000 </r>
       <r>    24.2184     0.0000     0.0000 </r>
       <r>    24.4508     0.0000     0.0000 </r>
       <r>    24.6831     0.0000     0.0000 </r>
       <r>    24.9154     0.0000     0.0000 </r>
       <r>    25.1477     0.0000     0.0000 </r>
       <r>    25.3800     0.0000     0.0000 </r>
       <r>    25.6123     0.0000     0.0000 </r>
       <r>    25.8446     0.0000     0.0000 </r>
       <r>    26.0770     0.0000     0.0000 </r>
       <r>    26.3093     0.0000     0.0000 </r>
       <r>    26.5416     0.0000     0.0000 </r>
       <r>    26.7739     0.0000     0.0000 </r>
       <r>    27.0062     0.0000     0.0000 </r>
       <r>    27.2385     0.0000     0.0000 </r>
       <r>    27.4709     0.0000     0.0000 </r>
       <r>    27.7032     0.0000     0.0000 </r>
       <r>    27.9355     0.0000     0.0000 </r>
       <r>    28.1678     0.0000     0.0000 </r>
       <r>    28.4001     0.0000     0.0000 </r>
       <r>    28.6324     0.0000     0.0000 </r>
       <r>    28.8647     0.0000     0.0000 </r>
       <r>    29.0971     0.0000     0.0000 </r>
       <r>    29.3294     0.0000     0.0000 </r>
       <r>    29.5617     0.0000     0.0000 </r>
       <r>    29.7940     0.0000     0.0000 </r>
       <r>    30.0263     0.0000     0.0000 </r>
       <r>    30.2586     0.0000     0.0000 </r>
       <r>    30.4910     0.0000     0.0000 </r>
       <r>    30.7233     0.0000     0.0000 </r>
       <r>    30.9556     0.0000     0.0000 </r>
       <r>    31.1879     0.0000     0.0000 </r>
       <r>    31.4202     0.0000     0.0000 </r>
      </set>
      <set comment="spin 4">
       <r>   -38.2743     0.0000     0.0000 </r>
       <r>   -38.0420     0.0000     0.0000 </r>
       <r>   -37.8097     0.0000     0.0000 </r>
       <r>   -37.5774     0.0000     0.0000 </r>
       <r>   -37.3451     0.0000     0.0000 </r>
       <r>   -37.1128     0.0000     0.0000 </r>
       <r>   -36.8804     0.0000     0.0000 </r>
       <r>   -36.6481     0.0000     0.0000 </r>
       <r>   -36.4158     0.0000     0.0000 </r>
       <r>   -36.1835     0.0000     0.0000 </r>
       <r>   -35.9512     0.0000     0.0000 </r>
       <r>   -35.7189     0.0000     0.0000 </r>
       <r>   -35.4866     0.0000     0.0000 </r>
       <r>   -35.2542     0.0000     0.0000 </r>
       <r>   -35.0219     0.0000     0.0000 </r>
       <r>   -34.7896     0.0000     0.0000 </r>
       <r>   -34.5573     0.0000     0.0000 </r>
       <r>   -34.3250     0.0000     0.0000 </r>
       <r>   -34.0927     0.0000     0.0000 </r>
       <r>   -33.8604     0.0000     0.0000 </r>
       <r>   -33.6280     0.0000     0.0000 </r>
       <r>   -33.3957     0.0000     0.0000 </r>
       <r>   -33.1634     0.0000     0.0000 </r>
       <r>   -32.9311     0.0000     0.0000 </r>
       <r>   -32.6988     0.0000     0.0000 </r>
       <r>   -32.4665     0.0000     0.0000 </r>
       <r>   -32.2341     0.0000     0.0000 </r>
       <r>   -32.0018     0.0000     0.0000 </r>
       <r>   -31.7695     0.0000     0.0000 </r>
       <r>   -31.5372     0.0000     0.0000 </r>
       <r>   -31.3049     0.0000     0.0000 </r>
       <r>   -31.0726     0.0000     0.0000 </r>
       <r>   -30.8403     0.0000     0.0000 </r>
       <r>   -30.6079     0.0000     0.0000 </r>
       <r>   -30.3756     0.0000     0.0000 </r>
       <r>   -30.1433     0.0000     0.0000 </r>
       <r>   -29.9110     0.0000     0.0000 </r>
       <r>   -29.6787     0.0000     0.0000 </r>
       <r>   -29.4464     0.0000     0.0000 </r>
       <r>   -29.2140     0.0000     0.0000 </r>
       <r>   -28.9817     0.0000     0.0000 </r>
       <r>   -28.7494     0.0000     0.0000 </r>
       <r>   -28.5171     0.0000     0.0000 </r>
       <r>   -28.2848     0.0000     0.0000 </r>
       <r>   -28.0525     0.0000     0.0000 </r>
       <r>   -27.8202     0.0000     0.0000 </r>
       <r>   -27.5878     0.0000     0.0000 </r>
       <r>   -27.3555     0.0000     0.0000 </r>
       <r>   -27.1232     0.0000     0.0000 </r>
       <r>   -26.8909     0.0000     0.0000 </r>
       <r>   -26.6586     0.0000     0.0000 </r>
       <r>   -26.4263     0.0000     0.0000 </r>
       <r>   -26.1940     0.0000     0.0000 </r>
       <r>   -25.9616     0.0000     0.0000 </r>
       <r>   -25.7293     0.0000     0.0000 </r>
       <r>   -25.4970     0.0000     0.0000 </r>
       <r>   -25.2647     0.0000     0.0000 </r>
       <r>   -25.0324     0.0000     0.0000 </r>
       <r>   -24.8001     0.0000     0.0000 </r>
       <r>   -24.5677     0.0000     0.0000 </r>
       <r>   -24.3354     0.0000     0.0000 </r>
       <r>   -24.1031     0.0000     0.0000 </r>
       <r>   -23.8708     0.0000     0.0000 </r>
       <r>   -23.6385     0.0000     0.0000 </r>
       <r>   -23.4062     0.0000     0.0000 </r>
       <r>   -23.1739     0.0000     0.0000 </r>
       <r>   -22.9415     0.0000     0.0000 </r>
       <r>   -22.7092     0.0000     0.0000 </r>
       <r>   -22.4769     0.0000     0.0000 </r>
       <r>   -22.2446     0.0000     0.0000 </r>
       <r>   -22.0123     0.0000     0.0000 </r>
       <r>   -21.7800     0.0000     0.0000 </r>
       <r>   -21.5476     0.0000     0.0000 </r>
       <r>   -21.3153     0.0000     0.0000 </r>
       <r>   -21.0830     0.0000     0.0000 </r>
       <r>   -20.8507     0.0000     0.0000 </r>
       <r>   -20.6184     0.0000     0.0000 </r>
       <r>   -20.3861     0.0000     0.0000 </r>
       <r>   -20.1538     0.0000     0.0000 </r>
       <r>   -19.9214     0.0000     0.0000 </r>
       <r>   -19.6891     0.0000     0.0000 </r>
       <r>   -19.4568     0.0000     0.0000 </r>
       <r>   -19.2245     0.0000     0.0000 </r>
       <r>   -18.9922     0.0000     0.0000 </r>
       <r>   -18.7599     0.0000     0.0000 </r>
       <r>   -18.5276     0.0000     0.0000 </r>
       <r>   -18.2952     0.0000     0.0000 </r>
       <r>   -18.0629     0.0000     0.0000 </r>
       <r>   -17.8306     0.0000     0.0000 </r>
       <r>   -17.5983     0.0000     0.0000 </r>
       <r>   -17.3660     0.0000     0.0000 </r>
       <r>   -17.1337     0.0000     0.0000 </r>
       <r>   -16.9013     0.0000     0.0000 </r>
       <r>   -16.6690     0.0000     0.0000 </r>
       <r>   -16.4367     0.0000     0.0000 </r>
       <r>   -16.2044     0.0000     0.0000 </r>
       <r>   -15.9721     0.0000     0.0000 </r>
       <r>   -15.7398     0.0000     0.0000 </r>
       <r>   -15.5075     0.0000     0.0000 </r>
       <r>   -15.2751     0.0000     0.0000 </r>
       <r>   -15.0428     0.0000     0.0000 </r>
       <r>   -14.8105     0.0000     0.0000 </r>
       <r>   -14.5782     0.0000     0.0000 </r>
       <r>   -14.3459     0.0000     0.0000 </r>
       <r>   -14.1136     0.0000     0.0000 </r>
       <r>   -13.8812     0.0000     0.0000 </r>
       <r>   -13.6489     0.0000     0.0000 </r>
       <r>   -13.4166     0.0000     0.0000 </r>
       <r>   -13.1843     0.0000     0.0000 </r>
       <r>   -12.9520     0.0000     0.0000 </r>
       <r>   -12.7197     0.0000     0.0000 </r>
       <r>   -12.4874     0.0000     0.0000 </r>
       <r>   -12.2550     0.0000     0.0000 </r>
       <r>   -12.0227     0.0000     0.0000 </r>
       <r>   -11.7904     0.0000     0.0000 </r>
       <r>   -11.5581     0.0000     0.0000 </r>
       <r>   -11.3258     0.0000     0.0000 </r>
       <r>   -11.0935     0.0000     0.0000 </r>
       <r>   -10.8611     0.0000     0.0000 </r>
       <r>   -10.6288     0.0000     0.0000 </r>
       <r>   -10.3965     0.0000     0.0000 </r>
       <r>   -10.1642     0.0000     0.0000 </r>
       <r>    -9.9319     0.0000     0.0000 </r>
       <r>    -9.6996     0.0000     0.0000 </r>
       <r>    -9.4673     0.0000     0.0000 </r>
       <r>    -9.2349     0.0000     0.0000 </r>
       <r>    -9.0026     0.0000     0.0000 </r>
       <r>    -8.7703     0.0000     0.0000 </r>
       <r>    -8.5380     0.0000     0.0000 </r>
       <r>    -8.3057     0.0000     0.0000 </r>
       <r>    -8.0734     0.0000     0.0000 </r>
       <r>    -7.8411     0.0000     0.0000 </r>
       <r>    -7.6087     0.0000     0.0000 </r>
       <r>    -7.3764     0.0000     0.0000 </r>
       <r>    -7.1441     0.0000     0.0000 </r>
       <r>    -6.9118     0.0000     0.0000 </r>
       <r>    -6.6795     0.0000     0.0000 </r>
       <r>    -6.4472     0.0000     0.0000 </r>
       <r>    -6.2148     0.0000     0.0000 </r>
       <r>    -5.9825     0.0000     0.0000 </r>
       <r>    -5.7502     0.0000     0.0000 </r>
       <r>    -5.5179     0.0000     0.0000 </r>
       <r>    -5.2856     0.0000     0.0000 </r>
       <r>    -5.0533     0.0000     0.0000 </r>
       <r>    -4.8210     0.0000     0.0000 </r>
       <r>    -4.5886     0.0000     0.0000 </r>
       <r>    -4.3563     0.0000     0.0000 </r>
       <r>    -4.1240     0.0000     0.0000 </r>
       <r>    -3.8917     0.0000     0.0000 </r>
       <r>    -3.6594     0.0000     0.0000 </r>
       <r>    -3.4271     0.0000     0.0000 </r>
       <r>    -3.1947     0.0000     0.0000 </r>
       <r>    -2.9624     0.0000     0.0000 </r>
       <r>    -2.7301     0.0000     0.0000 </r>
       <r>    -2.4978     0.0000     0.0000 </r>
       <r>    -2.2655     0.0000     0.0000 </r>
       <r>    -2.0332     0.0000     0.0000 </r>
       <r>    -1.8009     0.0000     0.0000 </r>
       <r>    -1.5685     0.0000     0.0000 </r>
       <r>    -1.3362     0.0000     0.0000 </r>
       <r>    -1.1039     0.0000     0.0000 </r>
       <r>    -0.8716     0.0000     0.0000 </r>
       <r>    -0.6393     0.0000     0.0000 </r>
       <r>    -0.4070     0.0000     0.0000 </r>
       <r>    -0.1747     0.0000     0.0000 </r>
       <r>     0.0577     0.0000     0.0000 </r>
       <r>     0.2900     0.0000     0.0000 </r>
       <r>     0.5223     0.0000     0.0000 </r>
       <r>     0.7546     0.0000     0.0000 </r>
       <r>     0.9869     0.0000     0.0000 </r>
       <r>     1.2192     0.0000     0.0000 </r>
       <r>     1.4516     0.0000     0.0000 </r>
       <r>     1.6839     0.0000     0.0000 </r>
       <r>     1.9162     0.0000     0.0000 </r>
       <r>     2.1485     0.0000     0.0000 </r>
       <r>     2.3808     0.0000     0.0000 </r>
       <r>     2.6131     0.0000     0.0000 </r>
       <r>     2.8454     0.0000     0.0000 </r>
       <r>     3.0778     0.0000     0.0000 </r>
       <r>     3.3101     0.0000     0.0000 </r>
       <r>     3.5424     0.0000     0.0000 </r>
       <r>     3.7747     0.0000     0.0000 </r>
       <r>     4.0070     0.0000     0.0000 </r>
       <r>     4.2393     0.0000     0.0000 </r>
       <r>     4.4717     0.0000     0.0000 </r>
       <r>     4.7040     0.0000     0.0000 </r>
       <r>     4.9363     0.0000     0.0000 </r>
       <r>     5.1686     0.0000     0.0000 </r>
       <r>     5.4009     0.0000     0.0000 </r>
       <r>     5.6332     0.0000     0.0000 </r>
       <r>     5.8655     0.0000     0.0000 </r>
       <r>     6.0979     0.0000     0.0000 </r>
       <r>     6.3302     0.0000     0.0000 </r>
       <r>     6.5625     0.0000     0.0000 </r>
       <r>     6.7948     0.0000     0.0000 </r>
       <r>     7.0271     0.0000     0.0000 </r>
       <r>     7.2594     0.0000     0.0000 </r>
       <r>     7.4917     0.0000     0.0000 </r>
       <r>     7.7241     0.0000     0.0000 </r>
       <r>     7.9564     0.0000     0.0000 </r>
       <r>     8.1887     0.0000     0.0000 </r>
       <r>     8.4210     0.0000     0.0000 </r>
       <r>     8.6533     0.0000     0.0000 </r>
       <r>     8.8856     0.0000     0.0000 </r>
       <r>     9.1180     0.0000     0.0000 </r>
       <r>     9.3503     0.0000     0.0000 </r>
       <r>     9.5826     0.0000     0.0000 </r>
       <r>     9.8149     0.0000     0.0000 </r>
       <r>    10.0472     0.0000     0.0000 </r>
       <r>    10.2795     0.0000     0.0000 </r>
       <r>    10.5118     0.0000     0.0000 </r>
       <r>    10.7442     0.0000     0.0000 </r>
       <r>    10.9765     0.0000     0.0000 </r>
       <r>    11.2088     0.0000     0.0000 </r>
       <r>    11.4411     0.0000     0.0000 </r>
       <r>    11.6734     0.0000     0.0000 </r>
       <r>    11.9057     0.0000     0.0000 </r>
       <r>    12.1381     0.0000     0.0000 </r>
       <r>    12.3704     0.0000     0.0000 </r>
       <r>    12.6027     0.0000     0.0000 </r>
       <r>    12.8350     0.0000     0.0000 </r>
       <r>    13.0673     0.0000     0.0000 </r>
       <r>    13.2996     0.0000     0.0000 </r>
       <r>    13.5319     0.0000     0.0000 </r>
       <r>    13.7643     0.0000     0.0000 </r>
       <r>    13.9966     0.0000     0.0000 </r>
       <r>    14.2289     0.0000     0.0000 </r>
       <r>    14.4612     0.0000     0.0000 </r>
       <r>    14.6935     0.0000     0.0000 </r>
       <r>    14.9258     0.0000     0.0000 </r>
       <r>    15.1581     0.0000     0.0000 </r>
       <r>    15.3905     0.0000     0.0000 </r>
       <r>    15.6228     0.0000     0.0000 </r>
       <r>    15.8551     0.0000     0.0000 </r>
       <r>    16.0874     0.0000     0.0000 </r>
       <r>    16.3197     0.0000     0.0000 </r>
       <r>    16.5520     0.0000     0.0000 </r>
       <r>    16.7844     0.0000     0.0000 </r>
       <r>    17.0167     0.0000     0.0000 </r>
       <r>    17.2490     0.0000     0.0000 </r>
       <r>    17.4813     0.0000     0.0000 </r>
       <r>    17.7136     0.0000     0.0000 </r>
       <r>    17.9459     0.0000     0.0000 </r>
       <r>    18.1782     0.0000     0.0000 </r>
       <r>    18.4106     0.0000     0.0000 </r>
       <r>    18.6429     0.0000     0.0000 </r>
       <r>    18.8752     0.0000     0.0000 </r>
       <r>    19.1075     0.0000     0.0000 </r>
       <r>    19.3398     0.0000     0.0000 </r>
       <r>    19.5721     0.0000     0.0000 </r>
       <r>    19.8045     0.0000     0.0000 </r>
       <r>    20.0368     0.0000     0.0000 </r>
       <r>    20.2691     0.0000     0.0000 </r>
       <r>    20.5014     0.0000     0.0000 </r>
       <r>    20.7337     0.0000     0.0000 </r>
       <r>    20.9660     0.0000     0.0000 </r>
       <r>    21.1983     0.0000     0.0000 </r>
       <r>    21.4307     0.0000     0.0000 </r>
       <r>    21.6630     0.0000     0.0000 </r>
       <r>    21.8953     0.0000     0.0000 </r>
       <r>    22.1276     0.0000     0.0000 </r>
       <r>    22.3599     0.0000     0.0000 </r>
       <r>    22.5922     0.0000     0.0000 </r>
       <r>    22.8246     0.0000     0.0000 </r>
       <r>    23.0569     0.0000     0.0000 </r>
       <r>    23.2892     0.0000     0.0000 </r>
       <r>    23.5215     0.0000     0.0000 </r>
       <r>    23.7538     0.0000     0.0000 </r>
       <r>    23.9861     0.0000     0.0000 </r>
       <r>    24.2184     0.0000     0.0000 </r>
       <r>    24.4508     0.0000     0.0000 </r>
       <r>    24.6831     0.0000     0.0000 </r>
       <r>    24.9154     0.0000     0.0000 </r>
       <r>    25.1477     0.0000     0.0000 </r>
       <r>    25.3800     0.0000     0.0000 </r>
       <r>    25.6123     0.0000     0.0000 </r>
       <r>    25.8446     0.0000     0.0000 </r>
       <r>    26.0770     0.0000     0.0000 </r>
       <r>    26.3093     0.0000     0.0000 </r>
       <r>    26.5416     0.0000     0.0000 </r>
       <r>    26.7739     0.0000     0.0000 </r>
       <r>    27.0062     0.0000     0.0000 </r>
       <r>    27.2385     0.0000     0.0000 </r>
       <r>    27.4709     0.0000     0.0000 </r>
       <r>    27.7032     0.0000     0.0000 </r>
       <r>    27.9355     0.0000     0.0000 </r>
       <r>    28.1678     0.0000     0.0000 </r>
       <r>    28.4001     0.0000     0.0000 </r>
       <r>    28.6324     0.0000     0.0000 </r>
       <r>    28.8647     0.0000     0.0000 </r>
       <r>    29.0971     0.0000     0.0000 </r>
       <r>    29.3294     0.0000     0.0000 </r>
       <r>    29.5617     0.0000     0.0000 </r>
       <r>    29.7940     0.0000     0.0000 </r>
       <r>    30.0263     0.0000     0.0000 </r>
       <r>    30.2586     0.0000     0.0000 </r>
       <r>    30.4910     0.0000     0.0000 </r>
       <r>    30.7233     0.0000     0.0000 </r>
       <r>    30.9556     0.0000     0.0000 </r>
       <r>    31.1879     0.0000     0.0000 </r>
       <r>    31.4202     0.0000     0.0000 </r>
      </set>
     </set>
    </array>
   </total>
  </dos>
 </calculation>
 <structure name="finalpos" >
  <crystal>
   <varray name="basis" >
    <v>       2.97422087       0.00000000       0.00000000 </v>
    <v>       1.48711043       2.57575083       0.00000000 </v>
    <v>       1.48711043       0.85858361       2.42844117 </v>
   </varray>
   <i name="volume">     18.60392805 </i>
   <varray name="rec_basis" >
    <v>       0.33622251      -0.19411816      -0.13726226 </v>
    <v>       0.00000000       0.38823631      -0.13726226 </v>
    <v>       0.00000000       0.00000000       0.41178679 </v>
   </varray>
  </crystal>
  <varray name="positions" >
   <v>       0.00000000       0.00000000       0.00000000 </v>
  </varray>
  <varray name="velocities" >
   <v>       0.00000000       0.00000000       0.00000000 </v>
  </varray>
 </structure>
</modeling>
