Og_FCC                                  
           1
     2.974221    0.000000    0.000000
     1.487110    2.575751    0.000000
     1.487110    0.858584    2.428441
   Ne
   1
Direct configuration=     1
   0.00000000  0.00000000  0.00000000
