    1    1  999    1
  0.4699146E+02  0.4050525E-09  0.4050525E-09  0.4050525E-09  0.1000000E-15
  1.000000000000000E-004
  CAR 
 Cn_FCC                                  
      8     47      8
 
  0.0000000E+00  0.0000000E+00  0.0000000E+00  0.1000000E-02
    1      -19.545067   1.000000
    2       -4.466179   0.652748
    3       -4.466179   0.652743
    4       -4.466178   0.652743
    5        3.550845   0.000000
    6       10.122672   0.000000
    7       10.122672   0.000000
    8       10.122673   0.000000
 
  0.1000000E+00  0.1007890E-17  0.1387779E-16  0.8000000E-02
    1      -19.529598   1.000000
    2       -4.620786   1.017261
    3       -4.481685   0.769397
    4       -4.481684   0.769393
    5        3.828545   0.000000
    6        9.684322   0.000000
    7       10.235997   0.000000
    8       10.235999   0.000000
 
  0.2000000E+00  0.2015780E-17  0.1387779E-16  0.8000000E-02
    1      -19.488658   1.000000
    2       -4.993901   1.000000
    3       -4.521711   0.972824
    4       -4.521711   0.972822
    5        4.532067   0.000000
    6        8.975839   0.000000
    7       10.350945   0.000000
    8       10.350952   0.000000
 
  0.3000000E+00  0.3023669E-17  0.1387779E-16  0.8000000E-02
    1      -19.437179   1.000000
    2       -5.407002   1.000000
    3       -4.570129   1.035458
    4       -4.570128   1.035458
    5        5.334317   0.000000
    6        8.533489   0.000000
    7       10.104492   0.000000
    8       10.104493   0.000000
 
  0.4000000E+00  0.4031559E-17  0.2775558E-16  0.8000000E-02
    1      -19.394796   1.000000
    2       -5.712300   1.000000
    3       -4.608492   1.022741
    4       -4.608491   1.022741
    5        5.849528   0.000000
    6        8.499941   0.000000
    7        9.803420   0.000000
    8        9.803421   0.000000
 
  0.5000000E+00  0.5039449E-17  0.2775558E-16  0.4000000E-02
    1      -19.378427   1.000000
    2       -5.823393   1.000000
    3       -4.622952   1.016358
    4       -4.622951   1.016358
    5        5.987456   0.000000
    6        8.585532   0.000000
    7        9.687326   0.000000
    8        9.687327   0.000000
 
  0.1000000E+00  0.1000000E+00  0.2775558E-16  0.6000000E-02
    1      -19.524455   1.000000
    2       -4.619968   1.017608
    3       -4.512485   0.939973
    4       -4.512484   0.939972
    5        3.919882   0.000000
    6        9.523172   0.000000
    7       10.313483   0.000000
    8       10.313484   0.000000
 
  0.2000000E+00  0.1000000E+00  0.1387779E-16  0.2400000E-01
    1      -19.492028   1.000000
    2       -4.897226   1.000000
    3       -4.564521   1.034909
    4       -4.544083   1.020840
    5        4.481441   0.000000
    6        8.959702   0.000000
    7       10.305075   0.000000
    8       10.506607   0.000000
 
  0.3000000E+00  0.1000000E+00  0.2775558E-16  0.2400000E-01
    1      -19.444043   1.000000
    2       -5.279776   1.000000
    3       -4.617181   1.018813
    4       -4.595813   1.028523
    5        5.275227   0.000000
    6        8.489979   0.000000
    7        9.752578   0.000000
    8       10.432342   0.000000
 
  0.4000000E+00  0.1000000E+00  0.2775558E-16  0.2400000E-01
    1      -19.398529   1.000000
    2       -5.604293   1.000000
    3       -4.660137   1.005257
    4       -4.650702   1.007268
    5        5.937586   0.000000
    6        8.280307   0.000000
    7        9.450951   0.000000
    8       10.135071   0.000000
 
  0.5000000E+00  0.1000000E+00  0.2775558E-16  0.2400000E-01
    1      -19.373376   1.000000
    2       -5.770304   1.000000
    3       -4.712079   1.000597
    4       -4.653216   1.006683
    5        6.221388   0.000000
    6        8.237669   0.000000
    7        9.496929   0.000000
    8        9.916791   0.000000
 
 -0.4000000E+00  0.1000000E+00 -0.1387779E-16  0.2400000E-01
    1      -19.378816   1.000000
    2       -5.733895   1.000000
    3       -4.731639   1.000224
    4       -4.624013   1.015924
    5        6.183297   0.000000
    6        8.279801   0.000000
    7        9.462781   0.000000
    8        9.908839   0.000000
 
 -0.3000000E+00  0.1000000E+00  0.1387779E-16  0.2400000E-01
    1      -19.412613   1.000000
    2       -5.506205   1.000000
    3       -4.709856   1.000664
    4       -4.573488   1.035305
    5        5.776417   0.000000
    6        8.389025   0.000000
    7        9.510647   0.000000
    8       10.142198   0.000000
 
 -0.2000000E+00  0.1000000E+00  0.0000000E+00  0.2400000E-01
    1      -19.461152   1.000000
    2       -5.155141   1.000000
    3       -4.649993   1.007440
    4       -4.520177   0.967933
    5        5.014040   0.000000
    6        8.695697   0.000000
    7        9.896421   0.000000
    8       10.533479   0.000000
 
 -0.1000000E+00  0.1000000E+00 -0.1283224E-16  0.1200000E-01
    1      -19.505636   1.000000
    2       -4.809693   1.000002
    3       -4.562825   1.034516
    4       -4.484729   0.790223
    5        4.250901   0.000000
    6        9.224470   0.000000
    7       10.241436   0.000000
    8       10.445028   0.000000
 
  0.2000000E+00  0.2000000E+00  0.0000000E+00  0.6000000E-02
    1      -19.470046   1.000000
    2       -4.976433   1.000000
    3       -4.630975   1.013237
    4       -4.630975   1.013237
    5        4.831823   0.000000
    6        8.538858   0.000000
    7       10.068220   0.000000
    8       10.877689   0.000000
 
  0.3000000E+00  0.2000000E+00  0.0000000E+00  0.2400000E-01
    1      -19.430663   1.000000
    2       -5.233130   1.000000
    3       -4.701423   1.000983
    4       -4.694873   1.001318
    5        5.446197   0.000000
    6        8.148981   0.000000
    7        9.348214   0.000000
    8       11.081464   0.000000
 
  0.4000000E+00  0.2000000E+00  0.5551115E-16  0.2400000E-01
    1      -19.388569   1.000000
    2       -5.491212   1.000000
    3       -4.802401   1.000003
    4       -4.732567   1.000213
    5        6.110958   0.000000
    6        7.943861   0.000000
    7        8.922702   0.000000
    8       10.879429   0.000000
 
  0.5000000E+00  0.2000000E+00  0.1110223E-15  0.2400000E-01
    1      -19.360064   1.000000
    2       -5.643544   1.000000
    3       -4.913452   1.000000
    4       -4.730877   1.000233
    5        6.621459   0.000000
    6        7.724223   0.000000
    7        9.058458   0.000000
    8       10.582060   0.000000
 
 -0.4000000E+00  0.2000000E+00 -0.1387779E-16  0.2400000E-01
    1      -19.356553   1.000000
    2       -5.648852   1.000000
    3       -4.985669   1.000000
    4       -4.690510   1.001593
    5        6.878747   0.000000
    6        7.644003   0.000000
    7        9.088979   0.000000
    8       10.417371   0.000000
 
 -0.3000000E+00  0.2000000E+00 -0.6938894E-17  0.2400000E-01
    1      -19.379446   1.000000
    2       -5.524072   1.000000
    3       -4.972148   1.000000
    4       -4.625729   1.015236
    5        6.562436   0.000000
    6        8.094358   0.000000
    7        8.716860   0.000000
    8       10.461991   0.000000
 
 -0.2000000E+00  0.2000000E+00 -0.2844004E-16  0.1200000E-01
    1      -19.419531   1.000000
    2       -5.338525   1.000000
    3       -4.844492   1.000000
    4       -4.560414   1.033755
    5        5.800050   0.000000
    6        8.476992   0.000000
    7        9.014025   0.000000
    8       10.682287   0.000000
 
  0.3000000E+00  0.3000000E+00  0.2775558E-16  0.6000000E-02
    1      -19.401923   1.000000
    2       -5.349240   1.000000
    3       -4.772332   1.000022
    4       -4.772332   1.000022
    5        5.683182   0.000000
    6        7.732927   0.000000
    7        9.225427   0.000000
    8       11.792983   0.000000
 
  0.4000000E+00  0.3000000E+00  0.2775558E-16  0.2400000E-01
    1      -19.368574   1.000000
    2       -5.505690   1.000000
    3       -4.870371   1.000000
    4       -4.820956   1.000001
    5        5.968714   0.000000
    6        7.541870   0.000000
    7        9.141682   0.000000
    8       11.951022   0.000000
 
  0.5000000E+00  0.3000000E+00  0.0000000E+00  0.2400000E-01
    1      -19.343434   1.000000
    2       -5.572799   1.000000
    3       -5.039505   1.000000
    4       -4.823885   1.000001
    5        6.326364   0.000000
    6        7.595268   0.000000
    7        9.115161   0.000000
    8       11.618284   0.000000
 
 -0.4000000E+00  0.3000000E+00 -0.6938894E-17  0.2400000E-01
    1      -19.336398   1.000000
    2       -5.510293   1.000000
    3       -5.228032   1.000000
    4       -4.780192   1.000014
    5        6.792747   0.000000
    6        7.632010   0.000000
    7        9.060983   0.000000
    8       11.224550   0.000000
 
 -0.3000000E+00  0.3000000E+00 -0.1768005E-16  0.1200000E-01
    1      -19.350247   1.000000
    2       -5.461709   1.000000
    3       -5.235099   1.000000
    4       -4.704997   1.000834
    5        7.341719   0.000000
    6        7.425864   0.000000
    7        8.683054   0.000000
    8       10.856406   0.000000
 
  0.4000000E+00  0.4000000E+00  0.0000000E+00  0.6000000E-02
    1      -19.346103   1.000000
    2       -5.611074   1.000000
    3       -4.882894   1.000000
    4       -4.882893   1.000000
    5        5.788439   0.000000
    6        7.228703   0.000000
    7        9.690768   0.000000
    8       13.014204   0.000000
 
  0.5000000E+00  0.4000000E+00  0.5551115E-16  0.2400000E-01
    1      -19.329836   1.000000
    2       -5.651289   1.000000
    3       -4.977136   1.000000
    4       -4.896890   1.000000
    5        5.863986   0.000000
    6        7.227175   0.000000
    7        9.868775   0.000000
    8       12.919929   0.000000
 
 -0.4000000E+00  0.4000000E+00 -0.5688009E-16  0.1200000E-01
    1      -19.326134   1.000000
    2       -5.572031   1.000000
    3       -5.157818   1.000000
    4       -4.858307   1.000000
    5        6.223367   0.000000
    6        7.498987   0.000000
    7        9.585460   0.000000
    8       12.143088   0.000000
 
  0.5000000E+00  0.5000000E+00  0.5551115E-16  0.3000000E-02
    1      -19.324606   1.000000
    2       -5.703552   1.000000
    3       -4.924277   1.000000
    4       -4.924276   1.000000
    5        5.679155   0.000000
    6        7.058213   0.000000
    7       10.229335   0.000000
    8       14.091585   0.000000
 
  0.3000000E+00  0.2000000E+00  0.1000000E+00  0.2400000E-01
    1      -19.456083   1.000000
    2       -5.120381   1.000000
    3       -4.691349   1.001537
    4       -4.568953   1.035431
    5        5.096854   0.000000
    6        8.544523   0.000000
    7        9.677848   0.000000
    8       10.979853   0.000000
 
  0.4000000E+00  0.2000000E+00  0.1000000E+00  0.4800000E-01
    1      -19.411002   1.000000
    2       -5.397909   1.000000
    3       -4.804125   1.000003
    4       -4.618157   1.018388
    5        5.875742   0.000000
    6        8.262950   0.000000
    7        9.023021   0.000000
    8       10.684945   0.000000
 
  0.5000000E+00  0.2000000E+00  0.1000000E+00  0.4800000E-01
    1      -19.373987   1.000000
    2       -5.618442   1.000000
    3       -4.868147   1.000000
    4       -4.673263   1.003226
    5        6.480977   0.000000
    6        7.959158   0.000000
    7        8.994795   0.000000
    8       10.380167   0.000000
 
 -0.4000000E+00  0.2000000E+00  0.1000000E+00  0.2400000E-01
    1      -19.359717   1.000000
    2       -5.701100   1.000000
    3       -4.887507   1.000000
    4       -4.697715   1.001162
    5        6.698462   0.000000
    6        7.765872   0.000000
    7        9.217447   0.000000
    8       10.259779   0.000000
 
  0.4000000E+00  0.3000000E+00  0.1000000E+00  0.2400000E-01
    1      -19.394245   1.000000
    2       -5.401071   1.000000
    3       -4.844142   1.000000
    4       -4.729780   1.000247
    5        5.958577   0.000000
    6        7.896395   0.000000
    7        8.885782   0.000000
    8       11.462840   0.000000
 
  0.5000000E+00  0.3000000E+00  0.1000000E+00  0.4800000E-01
    1      -19.360624   1.000000
    2       -5.528835   1.000000
    3       -4.980590   1.000000
    4       -4.781245   1.000013
    5        6.484905   0.000000
    6        7.831362   0.000000
    7        8.637777   0.000000
    8       11.203916   0.000000
 
 -0.4000000E+00  0.3000000E+00  0.1000000E+00  0.4800000E-01
    1      -19.342932   1.000000
    2       -5.567013   1.000000
    3       -5.100324   1.000000
    4       -4.792589   1.000006
    5        6.947910   0.000000
    6        7.598357   0.000000
    7        8.866913   0.000000
    8       10.839049   0.000000
 
 -0.3000000E+00  0.3000000E+00  0.1000000E+00  0.4800000E-01
    1      -19.348225   1.000000
    2       -5.527348   1.000000
    3       -5.141428   1.000000
    4       -4.748752   1.000088
    5        7.219913   0.000000
    6        7.504898   0.000000
    7        8.685354   0.000000
    8       10.759362   0.000000
 
 -0.2000000E+00  0.3000000E+00  0.1000000E+00  0.2400000E-01
    1      -19.374365   1.000000
    2       -5.472813   1.000000
    3       -5.024826   1.000000
    4       -4.677123   1.002772
    5        6.645979   0.000000
    6        8.182793   0.000000
    7        8.289453   0.000000
    8       10.843512   0.000000
 
  0.5000000E+00  0.4000000E+00  0.1000000E+00  0.2400000E-01
    1      -19.343744   1.000000
    2       -5.578774   1.000000
    3       -4.963263   1.000000
    4       -4.879609   1.000000
    5        6.092350   0.000000
    6        7.466966   0.000000
    7        9.270439   0.000000
    8       12.089299   0.000000
 
 -0.4000000E+00  0.4000000E+00  0.1000000E+00  0.4800000E-01
    1      -19.329385   1.000000
    2       -5.546032   1.000000
    3       -5.131856   1.000000
    4       -4.892641   1.000000
    5        6.389920   0.000000
    6        7.660831   0.000000
    7        9.223875   0.000000
    8       11.375616   0.000000
 
 -0.3000000E+00  0.4000000E+00  0.1000000E+00  0.2400000E-01
    1      -19.331120   1.000000
    2       -5.395998   1.000000
    3       -5.341502   1.000000
    4       -4.836871   1.000000
    5        6.837124   0.000000
    6        7.805265   0.000000
    7        8.908184   0.000000
    8       10.885678   0.000000
 
 -0.4000000E+00  0.5000000E+00  0.1000000E+00  0.1200000E-01
    1      -19.324338   1.000000
    2       -5.636851   1.000000
    3       -5.007771   1.000000
    4       -4.940738   1.000000
    5        5.976881   0.000000
    6        7.318724   0.000000
    7        9.848062   0.000000
    8       12.191361   0.000000
 
 -0.4000000E+00  0.4000000E+00  0.2000000E+00  0.2400000E-01
    1      -19.337845   1.000000
    2       -5.486685   1.000000
    3       -5.164202   1.000000
    4       -4.861203   1.000000
    5        6.796601   0.000000
    6        8.100072   0.000000
    7        8.350575   0.000000
    8       10.961434   0.000000
 
 -0.3000000E+00  0.4000000E+00  0.2000000E+00  0.2400000E-01
    1      -19.329104   1.000000
    2       -5.419053   1.000000
    3       -5.275788   1.000000
    4       -4.903444   1.000000
    5        6.890878   0.000000
    6        8.106400   0.000000
    7        8.582489   0.000000
    8       10.517981   0.000000
 
 -0.3000000E+00  0.5000000E+00  0.2000000E+00  0.1200000E-01
    1      -19.323909   1.000000
    2       -5.455494   1.000000
    3       -5.216036   1.000000
    4       -4.967057   1.000000
    5        6.621315   0.000000
    6        8.024066   0.000000
    7        8.970912   0.000000
    8       10.500086   0.000000
