    1    1  999    1
  0.4928368E+02  0.4115343E-09  0.4115343E-09  0.4115343E-09  0.1000000E-15
  1.000000000000000E-004
  CAR 
 Cn_FCC                                  
      8     47      8
 
  0.0000000E+00  0.0000000E+00  0.0000000E+00  0.1000000E-02
    1      -18.650939   1.000000
    2       -4.214023   0.641109
    3       -4.214023   0.641109
    4       -4.214023   0.641108
    5        3.023931   0.000000
    6        9.365152   0.000000
    7        9.365152   0.000000
    8        9.365152   0.000000
 
  0.1000000E+00 -0.5946879E-17 -0.1387779E-16  0.8000000E-02
    1      -18.638255   1.000000
    2       -4.353939   1.024521
    3       -4.227910   0.747650
    4       -4.227910   0.747649
    5        3.284679   0.000000
    6        8.977476   0.000000
    7        9.470045   0.000000
    8        9.470054   0.000000
 
  0.2000000E+00  0.1984030E-17 -0.1387779E-16  0.8000000E-02
    1      -18.604754   1.000000
    2       -4.690557   1.000000
    3       -4.263785   0.947831
    4       -4.263785   0.947831
    5        3.949293   0.000000
    6        8.327322   0.000000
    7        9.583717   0.000000
    8        9.583717   0.000000
 
  0.3000000E+00 -0.2477953E-16 -0.2775558E-16  0.8000000E-02
    1      -18.562730   1.000000
    2       -5.061679   1.000000
    3       -4.307197   1.032690
    4       -4.307197   1.032690
    5        4.724756   0.000000
    6        7.900521   0.000000
    7        9.371250   0.000000
    8        9.371251   0.000000
 
  0.4000000E+00  0.3968061E-17 -0.2775558E-16  0.8000000E-02
    1      -18.528214   1.000000
    2       -5.334988   1.000000
    3       -4.341609   1.030007
    4       -4.341609   1.030007
    5        5.254245   0.000000
    6        7.843067   0.000000
    7        9.099657   0.000000
    8        9.099657   0.000000
 
  0.5000000E+00 -0.2279550E-16 -0.2775558E-16  0.4000000E-02
    1      -18.514900   1.000000
    2       -5.434255   1.000000
    3       -4.354596   1.024217
    4       -4.354596   1.024217
    5        5.408183   0.000000
    6        7.914733   0.000000
    7        8.993907   0.000000
    8        8.993907   0.000000
 
  0.1000000E+00  0.1000000E+00  0.1387779E-16  0.6000000E-02
    1      -18.634042   1.000000
    2       -4.353886   1.024545
    3       -4.255381   0.912234
    4       -4.255381   0.912234
    5        3.370872   0.000000
    6        8.837886   0.000000
    7        9.537322   0.000000
    8        9.537326   0.000000
 
  0.2000000E+00  0.1000000E+00  0.0000000E+00  0.2400000E-01
    1      -18.607507   1.000000
    2       -4.604050   1.000000
    3       -4.301933   1.029456
    4       -4.283871   1.005435
    5        3.901837   0.000000
    6        8.321634   0.000000
    7        9.559709   0.000000
    8        9.715238   0.000000
 
  0.3000000E+00  0.1000000E+00  0.0000000E+00  0.2400000E-01
    1      -18.568316   1.000000
    2       -4.947765   1.000000
    3       -4.349136   1.026727
    4       -4.330333   1.033919
    5        4.662929   0.000000
    6        7.875316   0.000000
    7        9.076322   0.000000
    8        9.658925   0.000000
 
  0.4000000E+00  0.1000000E+00  0.0000000E+00  0.2400000E-01
    1      -18.531235   1.000000
    2       -5.238201   1.000000
    3       -4.388042   1.010588
    4       -4.379264   1.013607
    5        5.323916   0.000000
    6        7.672443   0.000000
    7        8.772950   0.000000
    8        9.396829   0.000000
 
  0.5000000E+00  0.1000000E+00  0.0000000E+00  0.2400000E-01
    1      -18.510782   1.000000
    2       -5.386373   1.000000
    3       -4.434600   1.001986
    4       -4.381637   1.012743
    5        5.624710   0.000000
    6        7.645597   0.000000
    7        8.774637   0.000000
    8        9.202437   0.000000
 
 -0.4000000E+00  0.1000000E+00  0.2775558E-16  0.2400000E-01
    1      -18.515205   1.000000
    2       -5.353856   1.000000
    3       -4.452030   1.000926
    4       -4.355547   1.023776
    5        5.578492   0.000000
    6        7.678704   0.000000
    7        8.753685   0.000000
    8        9.199387   0.000000
 
 -0.3000000E+00  0.1000000E+00  0.1387779E-16  0.2400000E-01
    1      -18.542703   1.000000
    2       -5.150459   1.000000
    3       -4.432303   1.002184
    4       -4.310319   1.033972
    5        5.152263   0.000000
    6        7.769032   0.000000
    7        8.839442   0.000000
    8        9.416291   0.000000
 
 -0.2000000E+00  0.1000000E+00  0.1387779E-16  0.2400000E-01
    1      -18.582281   1.000000
    2       -4.835901   1.000000
    3       -4.378455   1.013909
    4       -4.262563   0.943095
    5        4.407019   0.000000
    6        8.065012   0.000000
    7        9.194810   0.000000
    8        9.767106   0.000000
 
 -0.1000000E+00  0.1000000E+00  0.1889450E-16  0.1200000E-01
    1      -18.618637   1.000000
    2       -4.524923   1.000018
    3       -4.300355   1.028198
    4       -4.230752   0.767823
    5        3.682422   0.000000
    6        8.560024   0.000000
    7        9.482682   0.000000
    8        9.666215   0.000000
 
  0.2000000E+00  0.2000000E+00  0.0000000E+00  0.6000000E-02
    1      -18.589531   1.000000
    2       -4.676454   1.000000
    3       -4.361323   1.021118
    4       -4.361323   1.021118
    5        4.242228   0.000000
    6        7.944055   0.000000
    7        9.382504   0.000000
    8       10.047558   0.000000
 
  0.3000000E+00  0.2000000E+00  0.5551115E-16  0.2400000E-01
    1      -18.557383   1.000000
    2       -4.906827   1.000000
    3       -4.424633   1.002975
    4       -4.418568   1.003759
    5        4.847558   0.000000
    6        7.577973   0.000000
    7        8.696058   0.000000
    8       10.241194   0.000000
 
  0.4000000E+00  0.2000000E+00  0.0000000E+00  0.2400000E-01
    1      -18.523097   1.000000
    2       -5.137164   1.000000
    3       -4.515388   1.000032
    4       -4.452446   1.000908
    5        5.520108   0.000000
    6        7.377571   0.000000
    7        8.268051   0.000000
    8       10.068637   0.000000
 
  0.5000000E+00  0.2000000E+00  0.2775558E-16  0.2400000E-01
    1      -18.499924   1.000000
    2       -5.272299   1.000000
    3       -4.615216   1.000000
    4       -4.451059   1.000968
    5        6.036092   0.000000
    6        7.189720   0.000000
    7        8.342762   0.000000
    8        9.806864   0.000000
 
 -0.4000000E+00  0.2000000E+00  0.5551115E-16  0.2400000E-01
    1      -18.497077   1.000000
    2       -5.276556   1.000000
    3       -4.680038   1.000000
    4       -4.415016   1.004294
    5        6.242792   0.000000
    6        7.151775   0.000000
    7        8.360194   0.000000
    8        9.664417   0.000000
 
 -0.3000000E+00  0.2000000E+00  0.1387779E-16  0.2400000E-01
    1      -18.515691   1.000000
    2       -5.165689   1.000000
    3       -4.667453   1.000000
    4       -4.357090   1.023062
    5        5.902371   0.000000
    6        7.550570   0.000000
    7        8.065352   0.000000
    8        9.714586   0.000000
 
 -0.2000000E+00  0.2000000E+00  0.2446688E-16  0.1200000E-01
    1      -18.548326   1.000000
    2       -5.000559   1.000000
    3       -4.552527   1.000003
    4       -4.298638   1.026667
    5        5.156071   0.000000
    6        7.848377   0.000000
    7        8.414545   0.000000
    8        9.927624   0.000000
 
  0.3000000E+00  0.3000000E+00  0.2775558E-16  0.6000000E-02
    1      -18.533951   1.000000
    2       -5.011339   1.000000
    3       -4.487946   1.000154
    4       -4.487946   1.000154
    5        5.136130   0.000000
    6        7.201104   0.000000
    7        8.515097   0.000000
    8       10.877643   0.000000
 
  0.4000000E+00  0.3000000E+00  0.0000000E+00  0.2400000E-01
    1      -18.506810   1.000000
    2       -5.150726   1.000000
    3       -4.575879   1.000001
    4       -4.531593   1.000012
    5        5.484233   0.000000
    6        7.016547   0.000000
    7        8.376159   0.000000
    8       11.033958   0.000000
 
  0.5000000E+00  0.3000000E+00  0.0000000E+00  0.2400000E-01
    1      -18.486383   1.000000
    2       -5.209274   1.000000
    3       -4.727714   1.000000
    4       -4.534319   1.000010
    5        5.881815   0.000000
    6        7.040629   0.000000
    7        8.334245   0.000000
    8       10.746696   0.000000
 
 -0.4000000E+00  0.3000000E+00  0.3469447E-16  0.2400000E-01
    1      -18.480678   1.000000
    2       -5.151621   1.000000
    3       -4.897469   1.000000
    4       -4.495269   1.000103
    5        6.349840   0.000000
    6        7.022849   0.000000
    7        8.306633   0.000000
    8       10.397756   0.000000
 
 -0.3000000E+00  0.3000000E+00  0.2781797E-16  0.1200000E-01
    1      -18.491938   1.000000
    2       -5.108376   1.000000
    3       -4.903703   1.000000
    4       -4.427999   1.002602
    5        6.666942   0.000000
    6        6.965280   0.000000
    7        7.987278   0.000000
    8       10.070980   0.000000
 
  0.4000000E+00  0.4000000E+00  0.0000000E+00  0.6000000E-02
    1      -18.488532   1.000000
    2       -5.244885   1.000000
    3       -4.587134   1.000000
    4       -4.587134   1.000000
    5        5.383780   0.000000
    6        6.733697   0.000000
    7        8.810509   0.000000
    8       11.981225   0.000000
 
  0.5000000E+00  0.4000000E+00  0.5551115E-16  0.2400000E-01
    1      -18.475322   1.000000
    2       -5.280062   1.000000
    3       -4.671597   1.000000
    4       -4.599735   1.000000
    5        5.488345   0.000000
    6        6.724489   0.000000
    7        8.970393   0.000000
    8       11.919226   0.000000
 
 -0.4000000E+00  0.4000000E+00  0.4893377E-16  0.1200000E-01
    1      -18.472327   1.000000
    2       -5.207947   1.000000
    3       -4.833710   1.000000
    4       -4.565201   1.000001
    5        5.836467   0.000000
    6        6.949574   0.000000
    7        8.745408   0.000000
    8       11.225196   0.000000
 
  0.5000000E+00  0.5000000E+00  0.0000000E+00  0.3000000E-02
    1      -18.471074   1.000000
    2       -5.327019   1.000000
    3       -4.624290   1.000000
    4       -4.624289   1.000000
    5        5.324543   0.000000
    6        6.575350   0.000000
    7        9.279526   0.000000
    8       12.909053   0.000000
 
  0.3000000E+00  0.2000000E+00  0.1000000E+00  0.2400000E-01
    1      -18.578134   1.000000
    2       -4.805212   1.000000
    3       -4.415331   1.004244
    4       -4.306185   1.032177
    5        4.489970   0.000000
    6        7.935182   0.000000
    7        9.013100   0.000000
    8       10.182813   0.000000
 
  0.4000000E+00  0.2000000E+00  0.1000000E+00  0.4800000E-01
    1      -18.541373   1.000000
    2       -5.053707   1.000000
    3       -4.516582   1.000030
    4       -4.350264   1.026213
    5        5.246282   0.000000
    6        7.664211   0.000000
    7        8.405326   0.000000
    8        9.903004   0.000000
 
  0.5000000E+00  0.2000000E+00  0.1000000E+00  0.4800000E-01
    1      -18.511252   1.000000
    2       -5.250184   1.000000
    3       -4.574441   1.000001
    4       -4.399559   1.007374
    5        5.855124   0.000000
    6        7.413957   0.000000
    7        8.313102   0.000000
    8        9.625003   0.000000
 
 -0.4000000E+00  0.2000000E+00  0.1000000E+00  0.2400000E-01
    1      -18.499655   1.000000
    2       -5.323651   1.000000
    3       -4.592033   1.000000
    4       -4.421411   1.003373
    5        6.075371   0.000000
    6        7.256252   0.000000
    7        8.484539   0.000000
    8        9.514513   0.000000
 
  0.4000000E+00  0.3000000E+00  0.1000000E+00  0.2400000E-01
    1      -18.527709   1.000000
    2       -5.057107   1.000000
    3       -4.552279   1.000003
    4       -4.450025   1.001014
    5        5.384271   0.000000
    6        7.337416   0.000000
    7        8.229398   0.000000
    8       10.593478   0.000000
 
  0.5000000E+00  0.3000000E+00  0.1000000E+00  0.4800000E-01
    1      -18.500361   1.000000
    2       -5.170198   1.000000
    3       -4.674957   1.000000
    4       -4.496071   1.000099
    5        5.953289   0.000000
    6        7.260182   0.000000
    7        7.956658   0.000000
    8       10.358503   0.000000
 
 -0.4000000E+00  0.3000000E+00  0.1000000E+00  0.4800000E-01
    1      -18.485989   1.000000
    2       -5.202825   1.000000
    3       -4.782949   1.000000
    4       -4.506229   1.000055
    5        6.445411   0.000000
    6        7.012622   0.000000
    7        8.150908   0.000000
    8       10.023822   0.000000
 
 -0.3000000E+00  0.3000000E+00  0.1000000E+00  0.4800000E-01
    1      -18.490292   1.000000
    2       -5.167274   1.000000
    3       -4.819768   1.000000
    4       -4.467060   1.000453
    5        6.622929   0.000000
    6        6.976863   0.000000
    7        7.995049   0.000000
    8        9.960957   0.000000
 
 -0.2000000E+00  0.3000000E+00  0.1000000E+00  0.2400000E-01
    1      -18.511545   1.000000
    2       -5.119995   1.000000
    3       -4.714450   1.000000
    4       -4.403017   1.006569
    5        6.007257   0.000000
    6        7.631609   0.000000
    7        7.663019   0.000000
    8       10.050401   0.000000
 
  0.5000000E+00  0.4000000E+00  0.1000000E+00  0.2400000E-01
    1      -18.486625   1.000000
    2       -5.215293   1.000000
    3       -4.659238   1.000000
    4       -4.584096   1.000000
    5        5.668436   0.000000
    6        6.939928   0.000000
    7        8.455488   0.000000
    8       11.139809   0.000000
 
 -0.4000000E+00  0.4000000E+00  0.1000000E+00  0.4800000E-01
    1      -18.474968   1.000000
    2       -5.184573   1.000000
    3       -4.810605   1.000000
    4       -4.595773   1.000000
    5        5.986693   0.000000
    6        7.093935   0.000000
    7        8.427693   0.000000
    8       10.464774   0.000000
 
 -0.3000000E+00  0.4000000E+00  0.1000000E+00  0.2400000E-01
    1      -18.476385   1.000000
    2       -5.048843   1.000000
    3       -4.999303   1.000000
    4       -4.545884   1.000005
    5        6.424093   0.000000
    6        7.165002   0.000000
    7        8.174322   0.000000
    8       10.030095   0.000000
 
 -0.4000000E+00  0.5000000E+00  0.1000000E+00  0.1200000E-01
    1      -18.470863   1.000000
    2       -5.266610   1.000000
    3       -4.699231   1.000000
    4       -4.638846   1.000000
    5        5.605524   0.000000
    6        6.802487   0.000000
    7        8.965553   0.000000
    8       11.199978   0.000000
 
 -0.4000000E+00  0.4000000E+00  0.2000000E+00  0.2400000E-01
    1      -18.481847   1.000000
    2       -5.131138   1.000000
    3       -4.839863   1.000000
    4       -4.567527   1.000001
    5        6.348427   0.000000
    6        7.485203   0.000000
    7        7.643792   0.000000
    8       10.099527   0.000000
 
 -0.3000000E+00  0.4000000E+00  0.2000000E+00  0.2400000E-01
    1      -18.474745   1.000000
    2       -5.069314   1.000000
    3       -4.940646   1.000000
    4       -4.605270   1.000000
    5        6.481573   0.000000
    6        7.430700   0.000000
    7        7.899012   0.000000
    8        9.663911   0.000000
 
 -0.3000000E+00  0.5000000E+00  0.2000000E+00  0.1200000E-01
    1      -18.470520   1.000000
    2       -5.102583   1.000000
    3       -4.886552   1.000000
    4       -4.662123   1.000000
    5        6.224888   0.000000
    6        7.414649   0.000000
    7        8.227307   0.000000
    8        9.615636   0.000000
