 vasp.5.4.4.18Apr17-6-g9f103f2a35 (build Nov 03 2018 10:20:43) complex          
  
 executed on             LinuxIFC date 2018.12.03  15:03:29
 running on   32 total cores
 distrk:  each k-point on   16 cores,    2 groups
 distr:  one band on NCORES_PER_BAND=   4 cores,    4 groups


--------------------------------------------------------------------------------------------------------


 INCAR:
 POTCAR:    PAW_PBE Kr_GW 21Aug2013               

 ----------------------------------------------------------------------------- 
|                                                                             |
|           W    W    AA    RRRRR   N    N  II  N    N   GGGG   !!!           |
|           W    W   A  A   R    R  NN   N  II  NN   N  G    G  !!!           |
|           W    W  A    A  R    R  N N  N  II  N N  N  G       !!!           |
|           W WW W  AAAAAA  RRRRR   N  N N  II  N  N N  G  GGG   !            |
|           WW  WW  A    A  R   R   N   NN  II  N   NN  G    G                |
|           W    W  A    A  R    R  N    N  II  N    N   GGGG   !!!           |
|                                                                             |
|      You have enabled k-point parallelism (KPAR>1).                         |
|      This developmental code was originally  written by Paul Kent at ORNL,  |
|      and carefully double checked in Vienna.                                |
|      GW as well as linear response parallelism added by Martijn Marsman     |
|      and Georg Kresse.                                                      |
|      Carefully verify results versus KPAR=1.                                |
|      Report problems to Paul Kent and Vienna.                               |
|                                                                             |
 ----------------------------------------------------------------------------- 

 POTCAR:    PAW_PBE Kr_GW 21Aug2013               
   VRHFIN =Kr: s2p6                                                             
   LEXCH  = PE                                                                  
   EATOM  =   506.7358 eV,   37.2440 Ry                                         
                                                                                
   TITEL  = PAW_PBE Kr_GW 21Aug2013                                             
   LULTRA =        F    use ultrasoft PP ?                                      
   IUNSCR =        1    unscreen: 0-lin 1-nonlin 2-no                           
   RPACOR =    1.800    partial core radius                                     
   POMASS =   83.800; ZVAL   =    8.000    mass and valenz                      
   RCORE  =    2.300    outmost cutoff radius                                   
   RWIGS  =    2.300; RWIGS  =    1.217    wigner-seitz radius (au A)           
   ENMAX  =  252.232; ENMIN  =  189.174 eV                                      
   ICORE  =        3    local potential                                         
   LCOR   =        T    correct aug charges                                     
   LPAW   =        T    paw PP                                                  
   EAUG   =  554.765                                                            
   DEXC   =    0.000                                                            
   RMAX   =    2.354    core radius for proj-oper                               
   RAUG   =    1.300    factor for augmentation sphere                          
   RDEP   =    2.368    radius for radial grids                                 
   RDEPT  =    1.821    core radius for aug-charge                              
                                                                                
   Atomic configuration                                                         
   10 entries                                                                   
     n  l   j            E        occ.                                          
     1  0  0.50    -14156.5824   2.0000                                         
     2  0  0.50     -1864.1588   2.0000                                         
     2  1  1.50     -1648.0830   6.0000                                         
     3  0  0.50      -263.9350   2.0000                                         
     3  1  1.50      -195.1536   6.0000                                         
     3  2  2.50       -81.3940  10.0000                                         
     4  0  0.50       -23.0477   2.0000                                         
     4  1  0.50        -9.2466   6.0000                                         
     4  2  2.50        -1.3606   0.0000                                         
     4  3  2.50        -1.3606   0.0000                                         
   Description                                                                  
     l       E           TYP  RCUT    TYP  RCUT                                 
     0    -23.0476842     23  1.500                                             
     0     81.6349560     23  1.800                                             
     1     -9.2466308     23  2.200                                             
     1     68.0291300     23  2.200                                             
     2      6.8029130     23  2.200                                             
     2     68.0291300     23  2.200                                             
     3     27.2116520      7  2.300                                             
  local pseudopotential read in
  partial core-charges read in
  partial kinetic energy density read in
  kinetic energy density of atom read in
  atomic valenz-charges read in
  non local Contribution for L=           0  read in
    real space projection operators read in
  non local Contribution for L=           0  read in
    real space projection operators read in
  non local Contribution for L=           1  read in
    real space projection operators read in
  non local Contribution for L=           1  read in
    real space projection operators read in
  non local Contribution for L=           2  read in
    real space projection operators read in
  non local Contribution for L=           2  read in
    real space projection operators read in
    PAW grid and wavefunctions read in
 
   number of l-projection  operators is LMAX  =           6
   number of lm-projection operators is LMMAX =          18
 
  PAW_PBE Kr_GW 21Aug2013               :
 energy of atom  1       EATOM= -506.7358
 kinetic energy error for atom=    0.0037 (will be added to EATOM!!)
 
 
 POSCAR: Kr_FCC                                  
  positions in direct lattice
  velocities in cartesian coordinates

 METAGGA = SCAN     LMAXTAU =  0    LMIXTAU =  F

 exchange correlation table for  LEXCH =        8
   RHO(1)=    0.500       N(1)  =     2000
   RHO(2)=  100.500       N(2)  =     4000
 


--------------------------------------------------------------------------------------------------------


 ion  position               nearest neighbor table
   1  0.000  0.000  0.000-
 
  LATTYP: Found a face centered cubic cell.
 ALAT       =     5.7283074117
  
  Lattice vectors:
  
 A1 = (   4.0505250154,   0.0000000000,   0.0000000000)
 A2 = (   2.0252625077,   3.5078575620,  -0.0000000000)
 A3 = (   2.0252625077,   1.1692858540,   3.3072398262)


Analysis of symmetry for initial positions (statically):
=====================================================================
 Subroutine PRICEL returns:
 Original cell was already a primitive cell.
 

 Routine SETGRP: Setting up the symmetry group for a 
 face centered cubic supercell.


 Subroutine GETGRP returns: Found 48 space group operations
 (whereof 48 operations were pure point group operations)
 out of a pool of 48 trial point group operations.


The static configuration has the point symmetry O_h .


Analysis of symmetry for dynamics (positions and initial velocities):
=====================================================================
 Subroutine PRICEL returns:
 Original cell was already a primitive cell.
 

 Routine SETGRP: Setting up the symmetry group for a 
 face centered cubic supercell.


 Subroutine GETGRP returns: Found 48 space group operations
 (whereof 48 operations were pure point group operations)
 out of a pool of 48 trial point group operations.


The dynamic configuration has the point symmetry O_h .


 Subroutine INISYM returns: Found 48 space group operations
 (whereof 48 operations are pure point group operations),
 and found     1 'primitive' translations

 
 

Automatic generation of k-mesh.
 generate k-points for:   10   10   10
Space group operators:
 irot       det(A)        alpha          n_x          n_y          n_z        tau_x        tau_y        tau_z
    1     1.000000     0.000000     1.000000     0.000000     0.000000     0.000000     0.000000     0.000000
    2    -1.000000     0.000000     1.000000     0.000000     0.000000     0.000000     0.000000     0.000000
    3     1.000000   120.000000    -0.816497    -0.471405    -0.333333     0.000000     0.000000     0.000000
    4    -1.000000   120.000000    -0.816497    -0.471405    -0.333333     0.000000     0.000000     0.000000
    5     1.000000   120.000000     0.816497     0.471405     0.333333     0.000000     0.000000     0.000000
    6    -1.000000   120.000000     0.816497     0.471405     0.333333     0.000000     0.000000     0.000000
    7     1.000000    90.000000    -0.707107    -0.408248     0.577350     0.000000     0.000000     0.000000
    8    -1.000000    90.000000    -0.707107    -0.408248     0.577350     0.000000     0.000000     0.000000
    9     1.000000   180.000000     1.000000     0.000000     0.000000     0.000000     0.000000     0.000000
   10    -1.000000   180.000000     1.000000     0.000000     0.000000     0.000000     0.000000     0.000000
   11     1.000000    90.000000     0.707107    -0.408248     0.577350     0.000000     0.000000     0.000000
   12    -1.000000    90.000000     0.707107    -0.408248     0.577350     0.000000     0.000000     0.000000
   13     1.000000   180.000000     0.707107     0.408248    -0.577350     0.000000     0.000000     0.000000
   14    -1.000000   180.000000     0.707107     0.408248    -0.577350     0.000000     0.000000     0.000000
   15     1.000000   120.000000     0.816497    -0.471405    -0.333333     0.000000     0.000000     0.000000
   16    -1.000000   120.000000     0.816497    -0.471405    -0.333333     0.000000     0.000000     0.000000
   17     1.000000   120.000000     0.000000    -0.942809     0.333333     0.000000     0.000000     0.000000
   18    -1.000000   120.000000     0.000000    -0.942809     0.333333     0.000000     0.000000     0.000000
   19     1.000000    90.000000     0.707107     0.408248    -0.577350     0.000000     0.000000     0.000000
   20    -1.000000    90.000000     0.707107     0.408248    -0.577350     0.000000     0.000000     0.000000
   21     1.000000    90.000000    -0.000000    -0.816497    -0.577350     0.000000     0.000000     0.000000
   22    -1.000000    90.000000    -0.000000    -0.816497    -0.577350     0.000000     0.000000     0.000000
   23     1.000000   180.000000     0.500000     0.866025     0.000000     0.000000     0.000000     0.000000
   24    -1.000000   180.000000     0.500000     0.866025     0.000000     0.000000     0.000000     0.000000
   25     1.000000   120.000000     0.000000     0.942809    -0.333333     0.000000     0.000000     0.000000
   26    -1.000000   120.000000     0.000000     0.942809    -0.333333     0.000000     0.000000     0.000000
   27     1.000000   120.000000    -0.000000     0.000000    -1.000000     0.000000     0.000000     0.000000
   28    -1.000000   120.000000    -0.000000     0.000000    -1.000000     0.000000     0.000000     0.000000
   29     1.000000   180.000000    -0.000000     0.816497     0.577350     0.000000     0.000000     0.000000
   30    -1.000000   180.000000    -0.000000     0.816497     0.577350     0.000000     0.000000     0.000000
   31     1.000000    90.000000    -0.707107     0.408248    -0.577350     0.000000     0.000000     0.000000
   32    -1.000000    90.000000    -0.707107     0.408248    -0.577350     0.000000     0.000000     0.000000
   33     1.000000   180.000000     0.500000     0.288675     0.816497     0.000000     0.000000     0.000000
   34    -1.000000   180.000000     0.500000     0.288675     0.816497     0.000000     0.000000     0.000000
   35     1.000000    90.000000    -0.000000     0.816497     0.577350     0.000000     0.000000     0.000000
   36    -1.000000    90.000000    -0.000000     0.816497     0.577350     0.000000     0.000000     0.000000
   37     1.000000   120.000000    -0.816497     0.471405     0.333333     0.000000     0.000000     0.000000
   38    -1.000000   120.000000    -0.816497     0.471405     0.333333     0.000000     0.000000     0.000000
   39     1.000000   179.999999     0.707107    -0.408248     0.577350     0.000000     0.000000     0.000000
   40    -1.000000   179.999999     0.707107    -0.408248     0.577350     0.000000     0.000000     0.000000
   41     1.000000   120.000000    -0.000000    -0.000000     1.000000     0.000000     0.000000     0.000000
   42    -1.000000   120.000000    -0.000000    -0.000000     1.000000     0.000000     0.000000     0.000000
   43     1.000000   180.000000    -0.000000    -0.577350     0.816497     0.000000     0.000000     0.000000
   44    -1.000000   180.000000    -0.000000    -0.577350     0.816497     0.000000     0.000000     0.000000
   45     1.000000   180.000000    -0.500000     0.866025     0.000000     0.000000     0.000000     0.000000
   46    -1.000000   180.000000    -0.500000     0.866025     0.000000     0.000000     0.000000     0.000000
   47     1.000000   180.000000    -0.500000     0.288675     0.816497     0.000000     0.000000     0.000000
   48    -1.000000   180.000000    -0.500000     0.288675     0.816497     0.000000     0.000000     0.000000
 
 Subroutine IBZKPT returns following result:
 ===========================================
 
 Found     47 irreducible k-points:
 
 Following reciprocal coordinates:
            Coordinates               Weight
  0.000000  0.000000  0.000000      1.000000
  0.100000  0.000000  0.000000      8.000000
  0.200000  0.000000  0.000000      8.000000
  0.300000  0.000000  0.000000      8.000000
  0.400000  0.000000  0.000000      8.000000
  0.500000  0.000000  0.000000      4.000000
  0.100000  0.100000  0.000000      6.000000
  0.200000  0.100000  0.000000     24.000000
  0.300000  0.100000  0.000000     24.000000
  0.400000  0.100000  0.000000     24.000000
  0.500000  0.100000  0.000000     24.000000
 -0.400000  0.100000 -0.000000     24.000000
 -0.300000  0.100000  0.000000     24.000000
 -0.200000  0.100000  0.000000     24.000000
 -0.100000  0.100000 -0.000000     12.000000
  0.200000  0.200000  0.000000      6.000000
  0.300000  0.200000  0.000000     24.000000
  0.400000  0.200000  0.000000     24.000000
  0.500000  0.200000  0.000000     24.000000
 -0.400000  0.200000 -0.000000     24.000000
 -0.300000  0.200000 -0.000000     24.000000
 -0.200000  0.200000 -0.000000     12.000000
  0.300000  0.300000  0.000000      6.000000
  0.400000  0.300000  0.000000     24.000000
  0.500000  0.300000  0.000000     24.000000
 -0.400000  0.300000 -0.000000     24.000000
 -0.300000  0.300000 -0.000000     12.000000
  0.400000  0.400000  0.000000      6.000000
  0.500000  0.400000  0.000000     24.000000
 -0.400000  0.400000 -0.000000     12.000000
  0.500000  0.500000  0.000000      3.000000
  0.300000  0.200000  0.100000     24.000000
  0.400000  0.200000  0.100000     48.000000
  0.500000  0.200000  0.100000     48.000000
 -0.400000  0.200000  0.100000     24.000000
  0.400000  0.300000  0.100000     24.000000
  0.500000  0.300000  0.100000     48.000000
 -0.400000  0.300000  0.100000     48.000000
 -0.300000  0.300000  0.100000     48.000000
 -0.200000  0.300000  0.100000     24.000000
  0.500000  0.400000  0.100000     24.000000
 -0.400000  0.400000  0.100000     48.000000
 -0.300000  0.400000  0.100000     24.000000
 -0.400000  0.500000  0.100000     12.000000
 -0.400000  0.400000  0.200000     24.000000
 -0.300000  0.400000  0.200000     24.000000
 -0.300000  0.500000  0.200000     12.000000
 
 Following cartesian coordinates:
            Coordinates               Weight
  0.000000  0.000000  0.000000      1.000000
  0.024688 -0.014254 -0.010079      8.000000
  0.049376 -0.028507 -0.020158      8.000000
  0.074064 -0.042761 -0.030237      8.000000
  0.098753 -0.057015 -0.040316      8.000000
  0.123441 -0.071269 -0.050394      4.000000
  0.024688  0.014254 -0.020158      6.000000
  0.049376 -0.000000 -0.030237     24.000000
  0.074064 -0.014254 -0.040316     24.000000
  0.098753 -0.028507 -0.050394     24.000000
  0.123441 -0.042761 -0.060473     24.000000
 -0.098753  0.085522  0.030237     24.000000
 -0.074064  0.071269  0.020158     24.000000
 -0.049376  0.057015  0.010079     24.000000
 -0.024688  0.042761  0.000000     12.000000
  0.049376  0.028507 -0.040316      6.000000
  0.074064  0.014254 -0.050394     24.000000
  0.098753  0.000000 -0.060473     24.000000
  0.123441 -0.014254 -0.070552     24.000000
 -0.098753  0.114030  0.020158     24.000000
 -0.074064  0.099776  0.010079     24.000000
 -0.049376  0.085522  0.000000     12.000000
  0.074064  0.042761 -0.060473      6.000000
  0.098753  0.028507 -0.070552     24.000000
  0.123441  0.014254 -0.080631     24.000000
 -0.098753  0.142537  0.010079     24.000000
 -0.074064  0.128283  0.000000     12.000000
  0.098753  0.057015 -0.080631      6.000000
  0.123441  0.042761 -0.090710     24.000000
 -0.098753  0.171045  0.000000     12.000000
  0.123441  0.071269 -0.100789      3.000000
  0.074064  0.014254 -0.020158     24.000000
  0.098753  0.000000 -0.030237     48.000000
  0.123441 -0.014254 -0.040316     48.000000
 -0.098753  0.114030  0.050394     24.000000
  0.098753  0.028507 -0.040316     24.000000
  0.123441  0.014254 -0.050394     48.000000
 -0.098753  0.142537  0.040316     48.000000
 -0.074064  0.128283  0.030237     48.000000
 -0.049376  0.114030  0.020158     24.000000
  0.123441  0.042761 -0.060473     24.000000
 -0.098753  0.171045  0.030237     48.000000
 -0.074064  0.156791  0.020158     24.000000
 -0.098753  0.199552  0.020158     12.000000
 -0.098753  0.171045  0.060473     24.000000
 -0.074064  0.156791  0.050394     24.000000
 -0.074064  0.185298  0.040316     12.000000
 


--------------------------------------------------------------------------------------------------------




 Dimension of arrays:
   k-points           NKPTS =     47   k-points in BZ     NKDIM =     47   number of bands    NBANDS=      8
   number of dos      NEDOS =    301   number of ions     NIONS =      1
   non local maximal  LDIM  =      6   non local SUM 2l+1 LMDIM =     18
   total plane-waves  NPLWV =  32768
   max r-space proj   IRMAX =      1   max aug-charges    IRDMAX= 176043
   dimension x,y,z NGX =    32 NGY =   32 NGZ =   32
   dimension x,y,z NGXF=    64 NGYF=   64 NGZF=   64
   support grid    NGXF=   128 NGYF=  128 NGZF=  128
   ions per type =               1
   NGX,Y,Z   is equivalent  to a cutoff of  13.13, 13.13, 13.13 a.u.
   NGXF,Y,Z  is equivalent  to a cutoff of  26.27, 26.27, 26.27 a.u.

 SYSTEM =  Cn_FCC                                  
 POSCAR =  Kr_FCC                                  

 Startparameter for this run:
   NWRITE =      2    write-flag & timer
   PREC   = accura    normal or accurate (medium, high low for compatibility)
   ISTART =      0    job   : 0-new  1-cont  2-samecut
   ICHARG =      2    charge: 1-file 2-atom 10-const
   ISPIN  =      1    spin polarized calculation?
   LNONCOLLINEAR =      F non collinear calculations
   LSORBIT =      F    spin-orbit coupling
   INIWAV =      1    electr: 0-lowe 1-rand  2-diag
   LASPH  =      F    aspherical Exc in radial PAW
   METAGGA=      F    non-selfconsistent MetaGGA calc.

 Electronic Relaxation 1
   ENCUT  =  600.0 eV  44.10 Ry    6.64 a.u.   8.09  8.09  8.09*2*pi/ulx,y,z
   ENINI  =  600.0     initial cutoff
   ENAUG  =  554.8 eV  augmentation charge cutoff
   NELM   =    100;   NELMIN=  5; NELMDL= -5     # of ELM steps 
   EDIFF  = 0.1E-06   stopping-criterion for ELM
   LREAL  =      F    real-space projection
   NLSPLINE    = F    spline interpolate recip. space projectors
   LCOMPAT=      F    compatible to vasp.4.4
   GGA_COMPAT  = F    GGA compatible to vasp.4.4-vasp.4.6
   LMAXPAW     = -100 max onsite density
   LMAXMIX     =    2 max onsite mixed and CHGCAR
   VOSKOWN=      0    Vosko Wilk Nusair interpolation
   ROPT   =    0.00000
 Ionic relaxation
   EDIFFG = 0.1E-04   stopping-criterion for IOM
   NSW    =    999    number of steps for IOM
   NBLOCK =      1;   KBLOCK =    999    inner block; outer block 
   IBRION =      1    ionic relax: 0-MD 1-quasi-New 2-CG
   NFREE  =      5    steps in history (QN), initial steepest desc. (CG)
   ISIF   =      7    stress and relaxation
   IWAVPR =     11    prediction:  0-non 1-charg 2-wave 3-comb
   ISYM   =      2    0-nonsym 1-usesym 2-fastsym
   LCORR  =      T    Harris-Foulkes like correction to forces

   POTIM  = 0.1000    time-step for ionic-motion
   TEIN   =    0.0    initial temperature
   TEBEG  =    0.0;   TEEND  =   0.0 temperature during run
   SMASS  =  -3.00    Nose mass-parameter (am)
   estimated Nose-frequenzy (Omega)   =  0.10E-29 period in steps =****** mass=  -0.375E-27a.u.
   SCALEE = 1.0000    scale energy and forces
   NPACO  =    256;   APACO  = 16.0  distance and # of slots for P.C.
   PSTRESS=    0.0 pullay stress

  Mass of Ions in am
   POMASS =  83.80
  Ionic Valenz
   ZVAL   =   8.00
  Atomic Wigner-Seitz radii
   RWIGS  =  -1.00
  virtual crystal weights 
   VCA    =   1.00
   NELECT =       8.0000    total number of electrons
   NUPDOWN=      -1.0000    fix difference up-down

 DOS related values:
   EMIN   =  10.00;   EMAX   =-10.00  energy-range for DOS
   EFERMI =   0.00
   ISMEAR =     1;   SIGMA  =   0.10  broadening in eV -4-tet -1-fermi 0-gaus

 Electronic relaxation 2 (details)
   IALGO  =     68    algorithm
   LDIAG  =      T    sub-space diagonalisation (order eigenvalues)
   LSUBROT=      F    optimize rotation matrix (better conditioning)
   TURBO    =      0    0=normal 1=particle mesh
   IRESTART =      0    0=no restart 2=restart with 2 vectors
   NREBOOT  =      0    no. of reboots
   NMIN     =      0    reboot dimension
   EREF     =   0.00    reference energy to select bands
   IMIX   =      4    mixing-type and parameters
     AMIX     =   0.40;   BMIX     =  1.00
     AMIX_MAG =   1.60;   BMIX_MAG =  1.00
     AMIN     =   0.10
     WC   =   100.;   INIMIX=   1;  MIXPRE=   1;  MAXMIX=  50

 Intra band minimization:
   WEIMIN = 0.0010     energy-eigenvalue tresh-hold
   EBREAK =  0.31E-08  absolut break condition
   DEPER  =   0.30     relativ break condition  

   TIME   =   0.40     timestep for ELM

  volume/ion in A,a.u.               =      46.99       317.11
  Fermi-wavevector in a.u.,A,eV,Ry     =   0.907330  1.714605 11.200960  0.823247
  Thomas-Fermi vector in A             =   2.031124
 
 Write flags
   LWAVE        =      F    write WAVECAR
   LDOWNSAMPLE  =      F    k-point downsampling of WAVECAR
   LCHARG       =      F    write CHGCAR
   LVTOT        =      F    write LOCPOT, total local potential
   LVHAR        =      F    write LOCPOT, Hartree potential only
   LELF         =      F    write electronic localiz. function (ELF)
   LORBIT       =      0    0 simple, 1 ext, 2 COOP (PROOUT), +10 PAW based schemes


 Dipole corrections
   LMONO  =      F    monopole corrections only (constant potential shift)
   LDIPOL =      F    correct potential (dipole corrections)
   IDIPOL =      0    1-x, 2-y, 3-z, 4-all directions 
   EPSILON=  1.0000000 bulk dielectric constant

 Exchange correlation treatment:
   GGA     =    --    GGA type
   LEXCH   =     8    internal setting for exchange type
   VOSKOWN=      0    Vosko Wilk Nusair interpolation
   LHFCALC =     F    Hartree Fock is set to
   LHFONE  =     F    Hartree Fock one center treatment
   AEXX    =    0.0000 exact exchange contribution

 Linear response parameters
   LEPSILON=     F    determine dielectric tensor
   LRPA    =     F    only Hartree local field effects (RPA)
   LNABLA  =     F    use nabla operator in PAW spheres
   LVEL    =     F    velocity operator in full k-point grid
   LINTERFAST=   F  fast interpolation
   KINTER  =     0    interpolate to denser k-point grid
   CSHIFT  =0.1000    complex shift for real part using Kramers Kronig
   OMEGAMAX=  -1.0    maximum frequency
   DEG_THRESHOLD= 0.2000000E-02 threshold for treating states as degnerate
   RTIME   =   -0.100 relaxation time in fs
  (WPLASMAI=    0.000 imaginary part of plasma frequency in eV, 0.658/RTIME)
   DFIELD  = 0.0000000 0.0000000 0.0000000 field for delta impulse in time
 
 Orbital magnetization related:
   ORBITALMAG=     F  switch on orbital magnetization
   LCHIMAG   =     F  perturbation theory with respect to B field
   DQ        =  0.001000  dq finite difference perturbation B field
   LLRAUG    =     F  two centre corrections for induced B field



--------------------------------------------------------------------------------------------------------


 quasi-Newton-method for relaxation of ions
 charge density and potential will be updated during run
 non-spin polarized calculation
 RMM-DIIS sequential band-by-band and
  variant of blocked Davidson during initial phase
 perform sub-space diagonalisation
    before iterative eigenvector-optimisation
 modified Broyden-mixing scheme, WC =      100.0
 initial mixing is a Kerker type mixing with AMIX =  0.4000 and BMIX =      1.0000
 Hartree-type preconditioning will be used
 using additional bands            4
 reciprocal scheme for non local part
 use partial core corrections
 calculate Harris-corrections to forces 
   (improved forces if not selfconsistent)
 use gradient corrections 
 use of overlap-Matrix (Vanderbilt PP)
 Methfessel and Paxton  Order N= 1 SIGMA  =   0.10


--------------------------------------------------------------------------------------------------------


  energy-cutoff  :      600.00
  volume of cell :       46.99
      direct lattice vectors                 reciprocal lattice vectors
     4.050525015  0.000000000  0.000000000     0.246881576 -0.142537144 -0.100788981
     2.025262508  3.507857562 -0.000000000     0.000000000  0.285074289 -0.100788981
     2.025262508  1.169285854  3.307239826    -0.000000000  0.000000000  0.302366944

  length of vectors
     4.050525015  4.050525015  4.050525016     0.302366944  0.302366944  0.302366944


 
 k-points in units of 2pi/SCALE and weight: read from INCAR                         
   0.00000000  0.00000000  0.00000000       0.001
   0.02468816 -0.01425371 -0.01007890       0.008
   0.04937632 -0.02850743 -0.02015780       0.008
   0.07406447 -0.04276114 -0.03023669       0.008
   0.09875263 -0.05701486 -0.04031559       0.008
   0.12344079 -0.07126857 -0.05039449       0.004
   0.02468816  0.01425371 -0.02015780       0.006
   0.04937632 -0.00000000 -0.03023669       0.024
   0.07406447 -0.01425371 -0.04031559       0.024
   0.09875263 -0.02850743 -0.05039449       0.024
   0.12344079 -0.04276114 -0.06047339       0.024
  -0.09875263  0.08552229  0.03023669       0.024
  -0.07406447  0.07126857  0.02015780       0.024
  -0.04937632  0.05701486  0.01007890       0.024
  -0.02468816  0.04276114  0.00000000       0.012
   0.04937632  0.02850743 -0.04031559       0.006
   0.07406447  0.01425371 -0.05039449       0.024
   0.09875263  0.00000000 -0.06047339       0.024
   0.12344079 -0.01425371 -0.07055229       0.024
  -0.09875263  0.11402972  0.02015780       0.024
  -0.07406447  0.09977600  0.01007890       0.024
  -0.04937632  0.08552229  0.00000000       0.012
   0.07406447  0.04276114 -0.06047339       0.006
   0.09875263  0.02850743 -0.07055229       0.024
   0.12344079  0.01425371 -0.08063119       0.024
  -0.09875263  0.14253714  0.01007890       0.024
  -0.07406447  0.12828343  0.00000000       0.012
   0.09875263  0.05701486 -0.08063119       0.006
   0.12344079  0.04276114 -0.09071008       0.024
  -0.09875263  0.17104457  0.00000000       0.012
   0.12344079  0.07126857 -0.10078898       0.003
   0.07406447  0.01425371 -0.02015780       0.024
   0.09875263  0.00000000 -0.03023669       0.048
   0.12344079 -0.01425371 -0.04031559       0.048
  -0.09875263  0.11402972  0.05039449       0.024
   0.09875263  0.02850743 -0.04031559       0.024
   0.12344079  0.01425371 -0.05039449       0.048
  -0.09875263  0.14253714  0.04031559       0.048
  -0.07406447  0.12828343  0.03023669       0.048
  -0.04937632  0.11402972  0.02015780       0.024
   0.12344079  0.04276114 -0.06047339       0.024
  -0.09875263  0.17104457  0.03023669       0.048
  -0.07406447  0.15679086  0.02015780       0.024
  -0.09875263  0.19955200  0.02015780       0.012
  -0.09875263  0.17104457  0.06047339       0.024
  -0.07406447  0.15679086  0.05039449       0.024
  -0.07406447  0.18529829  0.04031559       0.012
 
 k-points in reciprocal lattice and weights: read from INCAR                         
   0.00000000  0.00000000  0.00000000       0.001
   0.10000000  0.00000000  0.00000000       0.008
   0.20000000  0.00000000  0.00000000       0.008
   0.30000000  0.00000000  0.00000000       0.008
   0.40000000  0.00000000  0.00000000       0.008
   0.50000000  0.00000000  0.00000000       0.004
   0.10000000  0.10000000  0.00000000       0.006
   0.20000000  0.10000000  0.00000000       0.024
   0.30000000  0.10000000  0.00000000       0.024
   0.40000000  0.10000000  0.00000000       0.024
   0.50000000  0.10000000  0.00000000       0.024
  -0.40000000  0.10000000 -0.00000000       0.024
  -0.30000000  0.10000000  0.00000000       0.024
  -0.20000000  0.10000000  0.00000000       0.024
  -0.10000000  0.10000000 -0.00000000       0.012
   0.20000000  0.20000000  0.00000000       0.006
   0.30000000  0.20000000  0.00000000       0.024
   0.40000000  0.20000000  0.00000000       0.024
   0.50000000  0.20000000  0.00000000       0.024
  -0.40000000  0.20000000 -0.00000000       0.024
  -0.30000000  0.20000000 -0.00000000       0.024
  -0.20000000  0.20000000 -0.00000000       0.012
   0.30000000  0.30000000  0.00000000       0.006
   0.40000000  0.30000000  0.00000000       0.024
   0.50000000  0.30000000  0.00000000       0.024
  -0.40000000  0.30000000 -0.00000000       0.024
  -0.30000000  0.30000000 -0.00000000       0.012
   0.40000000  0.40000000  0.00000000       0.006
   0.50000000  0.40000000  0.00000000       0.024
  -0.40000000  0.40000000 -0.00000000       0.012
   0.50000000  0.50000000  0.00000000       0.003
   0.30000000  0.20000000  0.10000000       0.024
   0.40000000  0.20000000  0.10000000       0.048
   0.50000000  0.20000000  0.10000000       0.048
  -0.40000000  0.20000000  0.10000000       0.024
   0.40000000  0.30000000  0.10000000       0.024
   0.50000000  0.30000000  0.10000000       0.048
  -0.40000000  0.30000000  0.10000000       0.048
  -0.30000000  0.30000000  0.10000000       0.048
  -0.20000000  0.30000000  0.10000000       0.024
   0.50000000  0.40000000  0.10000000       0.024
  -0.40000000  0.40000000  0.10000000       0.048
  -0.30000000  0.40000000  0.10000000       0.024
  -0.40000000  0.50000000  0.10000000       0.012
  -0.40000000  0.40000000  0.20000000       0.024
  -0.30000000  0.40000000  0.20000000       0.024
  -0.30000000  0.50000000  0.20000000       0.012
 
 position of ions in fractional coordinates (direct lattice) 
   0.00000000  0.00000000  0.00000000
 
 position of ions in cartesian coordinates  (Angst):
   0.00000000  0.00000000  0.00000000
 


--------------------------------------------------------------------------------------------------------


 k-point  1 :   0.0000 0.0000 0.0000  plane waves:    1471
 k-point  2 :   0.1000 0.0000 0.0000  plane waves:    1543
 k-point  3 :   0.2000 0.0000 0.0000  plane waves:    1552
 k-point  4 :   0.3000 0.0000 0.0000  plane waves:    1561
 k-point  5 :   0.4000 0.0000 0.0000  plane waves:    1586
 k-point  6 :   0.5000 0.0000 0.0000  plane waves:    1568
 k-point  7 :   0.1000 0.1000 0.0000  plane waves:    1547
 k-point  8 :   0.2000 0.1000 0.0000  plane waves:    1545
 k-point  9 :   0.3000 0.1000 0.0000  plane waves:    1571
 k-point 10 :   0.4000 0.1000 0.0000  plane waves:    1572
 k-point 11 :   0.5000 0.1000 0.0000  plane waves:    1556
 k-point 12 :  -0.4000 0.1000-0.0000  plane waves:    1560
 k-point 13 :  -0.3000 0.1000 0.0000  plane waves:    1568
 k-point 14 :  -0.2000 0.1000 0.0000  plane waves:    1565
 k-point 15 :  -0.1000 0.1000-0.0000  plane waves:    1550
 k-point 16 :   0.2000 0.2000 0.0000  plane waves:    1559
 k-point 17 :   0.3000 0.2000 0.0000  plane waves:    1568
 k-point 18 :   0.4000 0.2000 0.0000  plane waves:    1573
 k-point 19 :   0.5000 0.2000 0.0000  plane waves:    1571
 k-point 20 :  -0.4000 0.2000-0.0000  plane waves:    1560
 k-point 21 :  -0.3000 0.2000-0.0000  plane waves:    1562
 k-point 22 :  -0.2000 0.2000-0.0000  plane waves:    1558
 k-point 23 :   0.3000 0.3000 0.0000  plane waves:    1572
 k-point 24 :   0.4000 0.3000 0.0000  plane waves:    1571
 k-point 25 :   0.5000 0.3000 0.0000  plane waves:    1570
 k-point 26 :  -0.4000 0.3000-0.0000  plane waves:    1565
 k-point 27 :  -0.3000 0.3000-0.0000  plane waves:    1564
 k-point 28 :   0.4000 0.4000 0.0000  plane waves:    1584
 k-point 29 :   0.5000 0.4000 0.0000  plane waves:    1580
 k-point 30 :  -0.4000 0.4000-0.0000  plane waves:    1596
 k-point 31 :   0.5000 0.5000 0.0000  plane waves:    1588
 k-point 32 :   0.3000 0.2000 0.1000  plane waves:    1562
 k-point 33 :   0.4000 0.2000 0.1000  plane waves:    1569
 k-point 34 :   0.5000 0.2000 0.1000  plane waves:    1570
 k-point 35 :  -0.4000 0.2000 0.1000  plane waves:    1566
 k-point 36 :   0.4000 0.3000 0.1000  plane waves:    1567
 k-point 37 :   0.5000 0.3000 0.1000  plane waves:    1572
 k-point 38 :  -0.4000 0.3000 0.1000  plane waves:    1565
 k-point 39 :  -0.3000 0.3000 0.1000  plane waves:    1567
 k-point 40 :  -0.2000 0.3000 0.1000  plane waves:    1568
 k-point 41 :   0.5000 0.4000 0.1000  plane waves:    1573
 k-point 42 :  -0.4000 0.4000 0.1000  plane waves:    1572
 k-point 43 :  -0.3000 0.4000 0.1000  plane waves:    1569
 k-point 44 :  -0.4000 0.5000 0.1000  plane waves:    1580
 k-point 45 :  -0.4000 0.4000 0.2000  plane waves:    1562
 k-point 46 :  -0.3000 0.4000 0.2000  plane waves:    1578
 k-point 47 :  -0.3000 0.5000 0.2000  plane waves:    1584

 maximum and minimum number of plane-waves per node :       414      354

 maximum number of plane-waves:      1596
 maximum index in each direction: 
   IXMAX=    8   IYMAX=    8   IZMAX=    8
   IXMIN=   -8   IYMIN=   -8   IZMIN=   -8


 parallel 3D FFT for wavefunctions:
    minimum data exchange during FFTs selected (reduces bandwidth)
 parallel 3D FFT for charge:
    minimum data exchange during FFTs selected (reduces bandwidth)


 total amount of memory used by VASP MPI-rank0    37555. kBytes
=======================================================================

   base      :      30000. kBytes
   nonl-proj :       2713. kBytes
   fftplans  :       2665. kBytes
   grid      :       1531. kBytes
   one-center:         15. kBytes
   wavefun   :        631. kBytes
 
     INWAV:  cpu time    0.0000: real time    0.0000
 Broyden mixing: mesh for mixing (old mesh)
   NGX = 17   NGY = 17   NGZ = 17
  (NGX  = 64   NGY  = 64   NGZ  = 64)
  gives a total of   4913 points

 initial charge density was supplied:
 charge density of overlapping atoms calculated
 number of electron       8.0000000 magnetization 
 keeping initial charge density in first step


--------------------------------------------------------------------------------------------------------


 Maximum index for augmentation-charges        10867 (set IRDMAX)


--------------------------------------------------------------------------------------------------------


 First call to EWALD:  gamma=   0.491
 Maximum number of real-space cells 3x 3x 3
 Maximum number of reciprocal cells 3x 3x 3

    FEWALD:  cpu time    0.0021: real time    0.0021


--------------------------------------- Iteration      1(   1)  ---------------------------------------


    POTLOK:  cpu time    0.0496: real time    0.0502
    SETDIJ:  cpu time    0.0642: real time    0.0645
     EDDAV:  cpu time    0.2437: real time    0.2441
       DOS:  cpu time    0.0005: real time    0.0005
    --------------------------------------------
      LOOP:  cpu time    0.3580: real time    0.3594

 eigenvalue-minimisations  :   752
 total energy-change (2. order) : 0.1864745E+02  (-0.3858034E+03)
 number of electron       8.0000000 magnetization 
 augmentation part        8.0000000 magnetization 

 Free energy of the ion-electron system (eV)
  ---------------------------------------------------
  alpha Z        PSCENC =         8.93231164
  Ewald energy   TEWEN  =      -368.81282126
  -Hartree energ DENC   =      -102.65811273
  -exchange      EXHF   =         0.00000000
  -V(xc)+E(xc)   XCENC  =        22.15598885
  PAW double counting   =       402.34414725     -418.28700347
  entropy T*S    EENTRO =        -0.00090653
  eigenvalues    EBANDS =       -31.75826388
  atomic energy  EATOM  =       506.73211122
  Solvation  Ediel_sol  =         0.00000000
  ---------------------------------------------------
  free energy    TOTEN  =        18.64745110 eV

  energy without entropy =       18.64835763  energy(sigma->0) =       18.64775327


--------------------------------------------------------------------------------------------------------




--------------------------------------- Iteration      1(   2)  ---------------------------------------


     EDDAV:  cpu time    0.2980: real time    0.3007
       DOS:  cpu time    0.0007: real time    0.0004
    --------------------------------------------
      LOOP:  cpu time    0.2987: real time    0.3011

 eigenvalue-minimisations  :  1016
 total energy-change (2. order) :-0.3797876E+02  (-0.3648251E+02)
 number of electron       8.0000000 magnetization 
 augmentation part        8.0000000 magnetization 

 Free energy of the ion-electron system (eV)
  ---------------------------------------------------
  alpha Z        PSCENC =         8.93231164
  Ewald energy   TEWEN  =      -368.81282126
  -Hartree energ DENC   =      -102.65811273
  -exchange      EXHF   =         0.00000000
  -V(xc)+E(xc)   XCENC  =        22.15598885
  PAW double counting   =       402.34414725     -418.28700347
  entropy T*S    EENTRO =         0.00036024
  eigenvalues    EBANDS =       -69.73828773
  atomic energy  EATOM  =       506.73211122
  Solvation  Ediel_sol  =         0.00000000
  ---------------------------------------------------
  free energy    TOTEN  =       -19.33130599 eV

  energy without entropy =      -19.33166623  energy(sigma->0) =      -19.33142607


--------------------------------------------------------------------------------------------------------




--------------------------------------- Iteration      1(   3)  ---------------------------------------


     EDDAV:  cpu time    0.2599: real time    0.2608
       DOS:  cpu time    0.0007: real time    0.0004
    --------------------------------------------
      LOOP:  cpu time    0.2607: real time    0.2613

 eigenvalue-minimisations  :   904
 total energy-change (2. order) :-0.1497615E+01  (-0.1498515E+01)
 number of electron       8.0000000 magnetization 
 augmentation part        8.0000000 magnetization 

 Free energy of the ion-electron system (eV)
  ---------------------------------------------------
  alpha Z        PSCENC =         8.93231164
  Ewald energy   TEWEN  =      -368.81282126
  -Hartree energ DENC   =      -102.65811273
  -exchange      EXHF   =         0.00000000
  -V(xc)+E(xc)   XCENC  =        22.15598885
  PAW double counting   =       402.34414725     -418.28700347
  entropy T*S    EENTRO =         0.00283299
  eigenvalues    EBANDS =       -71.23837574
  atomic energy  EATOM  =       506.73211122
  Solvation  Ediel_sol  =         0.00000000
  ---------------------------------------------------
  free energy    TOTEN  =       -20.82892125 eV

  energy without entropy =      -20.83175423  energy(sigma->0) =      -20.82986558


--------------------------------------------------------------------------------------------------------




--------------------------------------- Iteration      1(   4)  ---------------------------------------


     EDDAV:  cpu time    0.3371: real time    0.3384
       DOS:  cpu time    0.0007: real time    0.0004
    --------------------------------------------
      LOOP:  cpu time    0.3378: real time    0.3388

 eigenvalue-minimisations  :  1200
 total energy-change (2. order) :-0.5908904E-02  (-0.5908426E-02)
 number of electron       8.0000000 magnetization 
 augmentation part        8.0000000 magnetization 

 Free energy of the ion-electron system (eV)
  ---------------------------------------------------
  alpha Z        PSCENC =         8.93231164
  Ewald energy   TEWEN  =      -368.81282126
  -Hartree energ DENC   =      -102.65811273
  -exchange      EXHF   =         0.00000000
  -V(xc)+E(xc)   XCENC  =        22.15598885
  PAW double counting   =       402.34414725     -418.28700347
  entropy T*S    EENTRO =         0.00281944
  eigenvalues    EBANDS =       -71.24427110
  atomic energy  EATOM  =       506.73211122
  Solvation  Ediel_sol  =         0.00000000
  ---------------------------------------------------
  free energy    TOTEN  =       -20.83483015 eV

  energy without entropy =      -20.83764959  energy(sigma->0) =      -20.83576996


--------------------------------------------------------------------------------------------------------




--------------------------------------- Iteration      1(   5)  ---------------------------------------


     EDDAV:  cpu time    0.2885: real time    0.2913
       DOS:  cpu time    0.0005: real time    0.0005
    CHARGE:  cpu time    0.1388: real time    0.1410
    MIXING:  cpu time    0.0010: real time    0.0010
    --------------------------------------------
      LOOP:  cpu time    0.4287: real time    0.4337

 eigenvalue-minimisations  :   984
 total energy-change (2. order) :-0.1613123E-04  (-0.1613082E-04)
 number of electron       8.0000000 magnetization 
 augmentation part       -0.8509429 magnetization 

 Broyden mixing:
  rms(total) = 0.15244E-01    rms(broyden)= 0.15119E-01
  rms(prec ) = 0.32188E-01
  weight for this iteration     100.00

 Free energy of the ion-electron system (eV)
  ---------------------------------------------------
  alpha Z        PSCENC =         8.93231164
  Ewald energy   TEWEN  =      -368.81282126
  -Hartree energ DENC   =      -102.65811273
  -exchange      EXHF   =         0.00000000
  -V(xc)+E(xc)   XCENC  =        22.15598885
  PAW double counting   =       402.34414725     -418.28700347
  entropy T*S    EENTRO =         0.00281929
  eigenvalues    EBANDS =       -71.24428708
  atomic energy  EATOM  =       506.73211122
  Solvation  Ediel_sol  =         0.00000000
  ---------------------------------------------------
  free energy    TOTEN  =       -20.83484628 eV

  energy without entropy =      -20.83766557  energy(sigma->0) =      -20.83578605


--------------------------------------------------------------------------------------------------------




--------------------------------------- Iteration      1(   6)  ---------------------------------------


    POTLOK:  cpu time    0.0442: real time    0.0444
    SETDIJ:  cpu time    0.0677: real time    0.0678
    EDDIAG:  cpu time    0.0691: real time    0.0694
  RMM-DIIS:  cpu time    0.2957: real time    0.2964
    ORTHCH:  cpu time    0.0020: real time    0.0020
       DOS:  cpu time    0.0007: real time    0.0005
    CHARGE:  cpu time    0.1308: real time    0.1317
    MIXING:  cpu time    0.0009: real time    0.0008
    --------------------------------------------
      LOOP:  cpu time    0.6110: real time    0.6129

 eigenvalue-minimisations  :   752
 total energy-change (2. order) : 0.1862372E+01  (-0.1386245E-01)
 number of electron       8.0000000 magnetization 
 augmentation part       -0.8533213 magnetization 

 Broyden mixing:
  rms(total) = 0.17108E-01    rms(broyden)= 0.17102E-01
  rms(prec ) = 0.52398E-01
  weight for this iteration     100.00

 eigenvalues of (default mixing * dielectric matrix)
  average eigenvalue GAMMA=   0.4647
  0.4647

 Free energy of the ion-electron system (eV)
  ---------------------------------------------------
  alpha Z        PSCENC =         8.93231164
  Ewald energy   TEWEN  =      -368.81282126
  -Hartree energ DENC   =      -102.52700275
  -exchange      EXHF   =         0.00000000
  -V(xc)+E(xc)   XCENC  =        22.28567638
  PAW double counting   =       401.14831853     -417.07710983
  entropy T*S    EENTRO =         0.00307956
  eigenvalues    EBANDS =       -69.65703757
  atomic energy  EATOM  =       506.73211122
  Solvation  Ediel_sol  =         0.00000000
  ---------------------------------------------------
  free energy    TOTEN  =       -18.97247408 eV

  energy without entropy =      -18.97555364  energy(sigma->0) =      -18.97350060


--------------------------------------------------------------------------------------------------------




--------------------------------------- Iteration      1(   7)  ---------------------------------------


    POTLOK:  cpu time    0.0440: real time    0.0443
    SETDIJ:  cpu time    0.0664: real time    0.0708
    EDDIAG:  cpu time    0.0662: real time    0.0663
  RMM-DIIS:  cpu time    0.2969: real time    0.2974
    ORTHCH:  cpu time    0.0019: real time    0.0019
       DOS:  cpu time    0.0004: real time    0.0004
    CHARGE:  cpu time    0.1285: real time    0.1314
    MIXING:  cpu time    0.0009: real time    0.0008
    --------------------------------------------
      LOOP:  cpu time    0.6053: real time    0.6134

 eigenvalue-minimisations  :   752
 total energy-change (2. order) : 0.2775650E-03  (-0.1621862E-03)
 number of electron       8.0000000 magnetization 
 augmentation part       -0.8529363 magnetization 

 Broyden mixing:
  rms(total) = 0.14380E-01    rms(broyden)= 0.14379E-01
  rms(prec ) = 0.43886E-01
  weight for this iteration     100.00

 eigenvalues of (default mixing * dielectric matrix)
  average eigenvalue GAMMA=   1.1281
  1.1281  1.1281

 Free energy of the ion-electron system (eV)
  ---------------------------------------------------
  alpha Z        PSCENC =         8.93231164
  Ewald energy   TEWEN  =      -368.81282126
  -Hartree energ DENC   =      -102.65529976
  -exchange      EXHF   =         0.00000000
  -V(xc)+E(xc)   XCENC  =        22.32277120
  PAW double counting   =       401.89456169     -417.82964125
  entropy T*S    EENTRO =         0.00307359
  eigenvalues    EBANDS =       -69.55926359
  atomic energy  EATOM  =       506.73211122
  Solvation  Ediel_sol  =         0.00000000
  ---------------------------------------------------
  free energy    TOTEN  =       -18.97219651 eV

  energy without entropy =      -18.97527011  energy(sigma->0) =      -18.97322104


--------------------------------------------------------------------------------------------------------




--------------------------------------- Iteration      1(   8)  ---------------------------------------


    POTLOK:  cpu time    0.0441: real time    0.0444
    SETDIJ:  cpu time    0.0621: real time    0.0704
    EDDIAG:  cpu time    0.0661: real time    0.0662
  RMM-DIIS:  cpu time    0.2951: real time    0.2958
    ORTHCH:  cpu time    0.0019: real time    0.0019
       DOS:  cpu time    0.0007: real time    0.0005
    CHARGE:  cpu time    0.1311: real time    0.1314
    MIXING:  cpu time    0.0009: real time    0.0008
    --------------------------------------------
      LOOP:  cpu time    0.6018: real time    0.6114

 eigenvalue-minimisations  :   752
 total energy-change (2. order) : 0.5501386E-03  (-0.7650601E-04)
 number of electron       8.0000000 magnetization 
 augmentation part       -0.8523903 magnetization 

 Broyden mixing:
  rms(total) = 0.67756E-02    rms(broyden)= 0.67755E-02
  rms(prec ) = 0.20353E-01
  weight for this iteration     100.00

 eigenvalues of (default mixing * dielectric matrix)
  average eigenvalue GAMMA=   1.3884
  1.9071  0.9834  1.2746

 Free energy of the ion-electron system (eV)
  ---------------------------------------------------
  alpha Z        PSCENC =         8.93231164
  Ewald energy   TEWEN  =      -368.81282126
  -Hartree energ DENC   =      -102.99294084
  -exchange      EXHF   =         0.00000000
  -V(xc)+E(xc)   XCENC  =        22.35714950
  PAW double counting   =       403.74880676     -419.70202519
  entropy T*S    EENTRO =         0.00305071
  eigenvalues    EBANDS =       -69.23728891
  atomic energy  EATOM  =       506.73211122
  Solvation  Ediel_sol  =         0.00000000
  ---------------------------------------------------
  free energy    TOTEN  =       -18.97164638 eV

  energy without entropy =      -18.97469708  energy(sigma->0) =      -18.97266328


--------------------------------------------------------------------------------------------------------




--------------------------------------- Iteration      1(   9)  ---------------------------------------


    POTLOK:  cpu time    0.0441: real time    0.0444
    SETDIJ:  cpu time    0.0617: real time    0.0707
    EDDIAG:  cpu time    0.0658: real time    0.0659
  RMM-DIIS:  cpu time    0.2968: real time    0.2973
    ORTHCH:  cpu time    0.0019: real time    0.0019
       DOS:  cpu time    0.0007: real time    0.0005
    CHARGE:  cpu time    0.1309: real time    0.1315
    MIXING:  cpu time    0.0009: real time    0.0008
    --------------------------------------------
      LOOP:  cpu time    0.6028: real time    0.6130

 eigenvalue-minimisations  :   752
 total energy-change (2. order) : 0.1239498E-03  (-0.4375748E-04)
 number of electron       8.0000000 magnetization 
 augmentation part       -0.8520044 magnetization 

 Broyden mixing:
  rms(total) = 0.12093E-02    rms(broyden)= 0.12093E-02
  rms(prec ) = 0.34946E-02
  weight for this iteration     100.00

 eigenvalues of (default mixing * dielectric matrix)
  average eigenvalue GAMMA=   1.6010
  2.1691  2.1691  1.0329  1.0329

 Free energy of the ion-electron system (eV)
  ---------------------------------------------------
  alpha Z        PSCENC =         8.93231164
  Ewald energy   TEWEN  =      -368.81282126
  -Hartree energ DENC   =      -103.24276239
  -exchange      EXHF   =         0.00000000
  -V(xc)+E(xc)   XCENC  =        22.38462538
  PAW double counting   =       405.10237751     -421.06830847
  entropy T*S    EENTRO =         0.00303377
  eigenvalues    EBANDS =       -69.00208984
  atomic energy  EATOM  =       506.73211122
  Solvation  Ediel_sol  =         0.00000000
  ---------------------------------------------------
  free energy    TOTEN  =       -18.97152243 eV

  energy without entropy =      -18.97455620  energy(sigma->0) =      -18.97253368


--------------------------------------------------------------------------------------------------------




--------------------------------------- Iteration      1(  10)  ---------------------------------------


    POTLOK:  cpu time    0.0441: real time    0.0444
    SETDIJ:  cpu time    0.0687: real time    0.0706
    EDDIAG:  cpu time    0.0659: real time    0.0660
  RMM-DIIS:  cpu time    0.2923: real time    0.2927
    ORTHCH:  cpu time    0.0019: real time    0.0019
       DOS:  cpu time    0.0004: real time    0.0005
    CHARGE:  cpu time    0.1278: real time    0.1317
    MIXING:  cpu time    0.0009: real time    0.0008
    --------------------------------------------
      LOOP:  cpu time    0.6020: real time    0.6086

 eigenvalue-minimisations  :   752
 total energy-change (2. order) : 0.2379664E-04  (-0.3415592E-05)
 number of electron       8.0000000 magnetization 
 augmentation part       -0.8519409 magnetization 

 Broyden mixing:
  rms(total) = 0.14307E-03    rms(broyden)= 0.14303E-03
  rms(prec ) = 0.41705E-03
  weight for this iteration     100.00

 eigenvalues of (default mixing * dielectric matrix)
  average eigenvalue GAMMA=   1.7409
  2.9646  1.9583  1.7157  1.0102  1.0559

 Free energy of the ion-electron system (eV)
  ---------------------------------------------------
  alpha Z        PSCENC =         8.93231164
  Ewald energy   TEWEN  =      -368.81282126
  -Hartree energ DENC   =      -103.28650375
  -exchange      EXHF   =         0.00000000
  -V(xc)+E(xc)   XCENC  =        22.39184238
  PAW double counting   =       405.28204336     -421.24915380
  entropy T*S    EENTRO =         0.00303168
  eigenvalues    EBANDS =       -68.96436009
  atomic energy  EATOM  =       506.73211122
  Solvation  Ediel_sol  =         0.00000000
  ---------------------------------------------------
  free energy    TOTEN  =       -18.97149863 eV

  energy without entropy =      -18.97453031  energy(sigma->0) =      -18.97250919


--------------------------------------------------------------------------------------------------------




--------------------------------------- Iteration      1(  11)  ---------------------------------------


    POTLOK:  cpu time    0.0439: real time    0.0442
    SETDIJ:  cpu time    0.0622: real time    0.0699
    EDDIAG:  cpu time    0.0654: real time    0.0655
  RMM-DIIS:  cpu time    0.2921: real time    0.2928
    ORTHCH:  cpu time    0.0020: real time    0.0019
       DOS:  cpu time    0.0006: real time    0.0005
    CHARGE:  cpu time    0.1305: real time    0.1308
    MIXING:  cpu time    0.0009: real time    0.0009
    --------------------------------------------
      LOOP:  cpu time    0.5976: real time    0.6065

 eigenvalue-minimisations  :   752
 total energy-change (2. order) :-0.1137151E-05  (-0.1329748E-06)
 number of electron       8.0000000 magnetization 
 augmentation part       -0.8519298 magnetization 

 Broyden mixing:
  rms(total) = 0.73403E-04    rms(broyden)= 0.73330E-04
  rms(prec ) = 0.14667E-03
  weight for this iteration     100.00

 eigenvalues of (default mixing * dielectric matrix)
  average eigenvalue GAMMA=   1.7818
  3.0276  2.7001  1.7786  0.9902  1.0590  1.1350

 Free energy of the ion-electron system (eV)
  ---------------------------------------------------
  alpha Z        PSCENC =         8.93231164
  Ewald energy   TEWEN  =      -368.81282126
  -Hartree energ DENC   =      -103.28980134
  -exchange      EXHF   =         0.00000000
  -V(xc)+E(xc)   XCENC  =        22.39252992
  PAW double counting   =       405.26200800     -421.22889195
  entropy T*S    EENTRO =         0.00303172
  eigenvalues    EBANDS =       -68.96197770
  atomic energy  EATOM  =       506.73211122
  Solvation  Ediel_sol  =         0.00000000
  ---------------------------------------------------
  free energy    TOTEN  =       -18.97149977 eV

  energy without entropy =      -18.97453148  energy(sigma->0) =      -18.97251034


--------------------------------------------------------------------------------------------------------




--------------------------------------- Iteration      1(  12)  ---------------------------------------


    POTLOK:  cpu time    0.0443: real time    0.0443
    SETDIJ:  cpu time    0.0625: real time    0.0704
    EDDIAG:  cpu time    0.0654: real time    0.0655
  RMM-DIIS:  cpu time    0.2449: real time    0.2453
    ORTHCH:  cpu time    0.0020: real time    0.0020
       DOS:  cpu time    0.0005: real time    0.0005
    CHARGE:  cpu time    0.1287: real time    0.1305
    MIXING:  cpu time    0.0010: real time    0.0010
    --------------------------------------------
      LOOP:  cpu time    0.5492: real time    0.5595

 eigenvalue-minimisations  :   571
 total energy-change (2. order) :-0.3511593E-05  (-0.1281609E-07)
 number of electron       8.0000000 magnetization 
 augmentation part       -0.8519260 magnetization 

 Broyden mixing:
  rms(total) = 0.10500E-04    rms(broyden)= 0.99985E-05
  rms(prec ) = 0.16845E-04
  weight for this iteration     100.00

 eigenvalues of (default mixing * dielectric matrix)
  average eigenvalue GAMMA=   1.8329
  3.1759  2.7420  0.9758  1.0170  1.0725  2.1624  1.6847

 Free energy of the ion-electron system (eV)
  ---------------------------------------------------
  alpha Z        PSCENC =         8.93231164
  Ewald energy   TEWEN  =      -368.81282126
  -Hartree energ DENC   =      -103.29001214
  -exchange      EXHF   =         0.00000000
  -V(xc)+E(xc)   XCENC  =        22.39252812
  PAW double counting   =       405.24452520     -421.21129404
  entropy T*S    EENTRO =         0.00303177
  eigenvalues    EBANDS =       -68.96188378
  atomic energy  EATOM  =       506.73211122
  Solvation  Ediel_sol  =         0.00000000
  ---------------------------------------------------
  free energy    TOTEN  =       -18.97150328 eV

  energy without entropy =      -18.97453505  energy(sigma->0) =      -18.97251387


--------------------------------------------------------------------------------------------------------




--------------------------------------- Iteration      1(  13)  ---------------------------------------


    POTLOK:  cpu time    0.0439: real time    0.0441
    SETDIJ:  cpu time    0.0634: real time    0.0701
    EDDIAG:  cpu time    0.0654: real time    0.0656
  RMM-DIIS:  cpu time    0.2438: real time    0.2444
    ORTHCH:  cpu time    0.0020: real time    0.0020
       DOS:  cpu time    0.0004: real time    0.0004
    --------------------------------------------
      LOOP:  cpu time    0.4189: real time    0.4266

 eigenvalue-minimisations  :   551
 total energy-change (2. order) :-0.5140146E-07  (-0.1638247E-08)
 number of electron       8.0000000 magnetization 
 augmentation part       -0.8519260 magnetization 

 Free energy of the ion-electron system (eV)
  ---------------------------------------------------
  alpha Z        PSCENC =         8.93231164
  Ewald energy   TEWEN  =      -368.81282126
  -Hartree energ DENC   =      -103.29031268
  -exchange      EXHF   =         0.00000000
  -V(xc)+E(xc)   XCENC  =        22.39252824
  PAW double counting   =       405.24636860     -421.21318597
  entropy T*S    EENTRO =         0.00303174
  eigenvalues    EBANDS =       -68.96153487
  atomic energy  EATOM  =       506.73211122
  Solvation  Ediel_sol  =         0.00000000
  ---------------------------------------------------
  free energy    TOTEN  =       -18.97150333 eV

  energy without entropy =      -18.97453507  energy(sigma->0) =      -18.97251391


--------------------------------------------------------------------------------------------------------




 average (electrostatic) potential at core
  the test charge radii are     0.9700
  (the norm of the test charge is              1.0000)
       1-104.1221
 
 
 
 E-fermi :  -4.4478     XC(G=0):  -6.8841     alpha+bet : -4.7171


 k-point     1 :       0.0000    0.0000    0.0000
  band No.  band energies     occupation 
      1     -19.5451      2.00000
      2      -4.4662      1.30550
      3      -4.4662      1.30549
      4      -4.4662      1.30549
      5       3.5508      0.00000
      6      10.1227      0.00000
      7      10.1227      0.00000
      8      10.1227      0.00000

 k-point     2 :       0.1000    0.0000    0.0000
  band No.  band energies     occupation 
      1     -19.5296      2.00000
      2      -4.6208      2.03452
      3      -4.4817      1.53879
      4      -4.4817      1.53879
      5       3.8285      0.00000
      6       9.6843      0.00000
      7      10.2360      0.00000
      8      10.2360      0.00000

 k-point     3 :       0.2000    0.0000    0.0000
  band No.  band energies     occupation 
      1     -19.4887      2.00000
      2      -4.9939      2.00000
      3      -4.5217      1.94565
      4      -4.5217      1.94564
      5       4.5321      0.00000
      6       8.9758      0.00000
      7      10.3509      0.00000
      8      10.3510      0.00000

 k-point     4 :       0.3000    0.0000    0.0000
  band No.  band energies     occupation 
      1     -19.4372      2.00000
      2      -5.4070      2.00000
      3      -4.5701      2.07092
      4      -4.5701      2.07092
      5       5.3343      0.00000
      6       8.5335      0.00000
      7      10.1045      0.00000
      8      10.1045      0.00000

 k-point     5 :       0.4000    0.0000    0.0000
  band No.  band energies     occupation 
      1     -19.3948      2.00000
      2      -5.7123      2.00000
      3      -4.6085      2.04548
      4      -4.6085      2.04548
      5       5.8495      0.00000
      6       8.4999      0.00000
      7       9.8034      0.00000
      8       9.8034      0.00000

 k-point     6 :       0.5000    0.0000    0.0000
  band No.  band energies     occupation 
      1     -19.3784      2.00000
      2      -5.8234      2.00000
      3      -4.6230      2.03272
      4      -4.6230      2.03272
      5       5.9875      0.00000
      6       8.5855      0.00000
      7       9.6873      0.00000
      8       9.6873      0.00000

 k-point     7 :       0.1000    0.1000    0.0000
  band No.  band energies     occupation 
      1     -19.5245      2.00000
      2      -4.6200      2.03522
      3      -4.5125      1.87995
      4      -4.5125      1.87994
      5       3.9199      0.00000
      6       9.5232      0.00000
      7      10.3135      0.00000
      8      10.3135      0.00000

 k-point     8 :       0.2000    0.1000    0.0000
  band No.  band energies     occupation 
      1     -19.4920      2.00000
      2      -4.8972      2.00000
      3      -4.5645      2.06982
      4      -4.5441      2.04168
      5       4.4814      0.00000
      6       8.9597      0.00000
      7      10.3051      0.00000
      8      10.5066      0.00000

 k-point     9 :       0.3000    0.1000    0.0000
  band No.  band energies     occupation 
      1     -19.4440      2.00000
      2      -5.2798      2.00000
      3      -4.6172      2.03763
      4      -4.5958      2.05705
      5       5.2752      0.00000
      6       8.4900      0.00000
      7       9.7526      0.00000
      8      10.4323      0.00000

 k-point    10 :       0.4000    0.1000    0.0000
  band No.  band energies     occupation 
      1     -19.3985      2.00000
      2      -5.6043      2.00000
      3      -4.6601      2.01051
      4      -4.6507      2.01454
      5       5.9376      0.00000
      6       8.2803      0.00000
      7       9.4510      0.00000
      8      10.1351      0.00000

 k-point    11 :       0.5000    0.1000    0.0000
  band No.  band energies     occupation 
      1     -19.3734      2.00000
      2      -5.7703      2.00000
      3      -4.7121      2.00119
      4      -4.6532      2.01337
      5       6.2214      0.00000
      6       8.2377      0.00000
      7       9.4969      0.00000
      8       9.9168      0.00000

 k-point    12 :      -0.4000    0.1000   -0.0000
  band No.  band energies     occupation 
      1     -19.3788      2.00000
      2      -5.7339      2.00000
      3      -4.7316      2.00045
      4      -4.6240      2.03185
      5       6.1833      0.00000
      6       8.2798      0.00000
      7       9.4628      0.00000
      8       9.9088      0.00000

 k-point    13 :      -0.3000    0.1000    0.0000
  band No.  band energies     occupation 
      1     -19.4126      2.00000
      2      -5.5062      2.00000
      3      -4.7099      2.00133
      4      -4.5735      2.07061
      5       5.7764      0.00000
      6       8.3890      0.00000
      7       9.5106      0.00000
      8      10.1422      0.00000

 k-point    14 :      -0.2000    0.1000    0.0000
  band No.  band energies     occupation 
      1     -19.4612      2.00000
      2      -5.1551      2.00000
      3      -4.6500      2.01488
      4      -4.5202      1.93587
      5       5.0140      0.00000
      6       8.6957      0.00000
      7       9.8964      0.00000
      8      10.5335      0.00000

 k-point    15 :      -0.1000    0.1000   -0.0000
  band No.  band energies     occupation 
      1     -19.5056      2.00000
      2      -4.8097      2.00000
      3      -4.5628      2.06903
      4      -4.4847      1.58045
      5       4.2509      0.00000
      6       9.2245      0.00000
      7      10.2414      0.00000
      8      10.4450      0.00000

 k-point    16 :       0.2000    0.2000    0.0000
  band No.  band energies     occupation 
      1     -19.4700      2.00000
      2      -4.9764      2.00000
      3      -4.6310      2.02647
      4      -4.6310      2.02647
      5       4.8318      0.00000
      6       8.5389      0.00000
      7      10.0682      0.00000
      8      10.8777      0.00000

 k-point    17 :       0.3000    0.2000    0.0000
  band No.  band energies     occupation 
      1     -19.4307      2.00000
      2      -5.2331      2.00000
      3      -4.7014      2.00197
      4      -4.6949      2.00264
      5       5.4462      0.00000
      6       8.1490      0.00000
      7       9.3482      0.00000
      8      11.0815      0.00000

 k-point    18 :       0.4000    0.2000    0.0000
  band No.  band energies     occupation 
      1     -19.3886      2.00000
      2      -5.4912      2.00000
      3      -4.8024      2.00001
      4      -4.7326      2.00043
      5       6.1110      0.00000
      6       7.9439      0.00000
      7       8.9227      0.00000
      8      10.8794      0.00000

 k-point    19 :       0.5000    0.2000    0.0000
  band No.  band energies     occupation 
      1     -19.3601      2.00000
      2      -5.6435      2.00000
      3      -4.9135      2.00000
      4      -4.7309      2.00047
      5       6.6215      0.00000
      6       7.7242      0.00000
      7       9.0585      0.00000
      8      10.5821      0.00000

 k-point    20 :      -0.4000    0.2000   -0.0000
  band No.  band energies     occupation 
      1     -19.3566      2.00000
      2      -5.6489      2.00000
      3      -4.9857      2.00000
      4      -4.6905      2.00319
      5       6.8787      0.00000
      6       7.6440      0.00000
      7       9.0890      0.00000
      8      10.4174      0.00000

 k-point    21 :      -0.3000    0.2000   -0.0000
  band No.  band energies     occupation 
      1     -19.3794      2.00000
      2      -5.5241      2.00000
      3      -4.9721      2.00000
      4      -4.6257      2.03047
      5       6.5624      0.00000
      6       8.0944      0.00000
      7       8.7169      0.00000
      8      10.4620      0.00000

 k-point    22 :      -0.2000    0.2000   -0.0000
  band No.  band energies     occupation 
      1     -19.4195      2.00000
      2      -5.3385      2.00000
      3      -4.8445      2.00000
      4      -4.5604      2.06751
      5       5.8001      0.00000
      6       8.4770      0.00000
      7       9.0140      0.00000
      8      10.6823      0.00000

 k-point    23 :       0.3000    0.3000    0.0000
  band No.  band energies     occupation 
      1     -19.4019      2.00000
      2      -5.3492      2.00000
      3      -4.7723      2.00004
      4      -4.7723      2.00004
      5       5.6832      0.00000
      6       7.7329      0.00000
      7       9.2254      0.00000
      8      11.7930      0.00000

 k-point    24 :       0.4000    0.3000    0.0000
  band No.  band energies     occupation 
      1     -19.3686      2.00000
      2      -5.5057      2.00000
      3      -4.8704      2.00000
      4      -4.8210      2.00000
      5       5.9687      0.00000
      6       7.5419      0.00000
      7       9.1417      0.00000
      8      11.9510      0.00000

 k-point    25 :       0.5000    0.3000    0.0000
  band No.  band energies     occupation 
      1     -19.3434      2.00000
      2      -5.5728      2.00000
      3      -5.0395      2.00000
      4      -4.8239      2.00000
      5       6.3264      0.00000
      6       7.5953      0.00000
      7       9.1152      0.00000
      8      11.6183      0.00000

 k-point    26 :      -0.4000    0.3000   -0.0000
  band No.  band energies     occupation 
      1     -19.3364      2.00000
      2      -5.5103      2.00000
      3      -5.2280      2.00000
      4      -4.7802      2.00003
      5       6.7927      0.00000
      6       7.6320      0.00000
      7       9.0610      0.00000
      8      11.2245      0.00000

 k-point    27 :      -0.3000    0.3000   -0.0000
  band No.  band energies     occupation 
      1     -19.3502      2.00000
      2      -5.4617      2.00000
      3      -5.2351      2.00000
      4      -4.7050      2.00167
      5       7.3417      0.00000
      6       7.4259      0.00000
      7       8.6831      0.00000
      8      10.8564      0.00000

 k-point    28 :       0.4000    0.4000    0.0000
  band No.  band energies     occupation 
      1     -19.3461      2.00000
      2      -5.6111      2.00000
      3      -4.8829      2.00000
      4      -4.8829      2.00000
      5       5.7884      0.00000
      6       7.2287      0.00000
      7       9.6908      0.00000
      8      13.0142      0.00000

 k-point    29 :       0.5000    0.4000    0.0000
  band No.  band energies     occupation 
      1     -19.3298      2.00000
      2      -5.6513      2.00000
      3      -4.9771      2.00000
      4      -4.8969      2.00000
      5       5.8640      0.00000
      6       7.2272      0.00000
      7       9.8688      0.00000
      8      12.9199      0.00000

 k-point    30 :      -0.4000    0.4000   -0.0000
  band No.  band energies     occupation 
      1     -19.3261      2.00000
      2      -5.5720      2.00000
      3      -5.1578      2.00000
      4      -4.8583      2.00000
      5       6.2234      0.00000
      6       7.4990      0.00000
      7       9.5855      0.00000
      8      12.1431      0.00000

 k-point    31 :       0.5000    0.5000    0.0000
  band No.  band energies     occupation 
      1     -19.3246      2.00000
      2      -5.7036      2.00000
      3      -4.9243      2.00000
      4      -4.9243      2.00000
      5       5.6792      0.00000
      6       7.0582      0.00000
      7      10.2293      0.00000
      8      14.0916      0.00000

 k-point    32 :       0.3000    0.2000    0.1000
  band No.  band energies     occupation 
      1     -19.4561      2.00000
      2      -5.1204      2.00000
      3      -4.6913      2.00307
      4      -4.5690      2.07086
      5       5.0969      0.00000
      6       8.5445      0.00000
      7       9.6778      0.00000
      8      10.9799      0.00000

 k-point    33 :       0.4000    0.2000    0.1000
  band No.  band energies     occupation 
      1     -19.4110      2.00000
      2      -5.3979      2.00000
      3      -4.8041      2.00001
      4      -4.6182      2.03678
      5       5.8757      0.00000
      6       8.2629      0.00000
      7       9.0230      0.00000
      8      10.6849      0.00000

 k-point    34 :       0.5000    0.2000    0.1000
  band No.  band energies     occupation 
      1     -19.3740      2.00000
      2      -5.6184      2.00000
      3      -4.8681      2.00000
      4      -4.6733      2.00645
      5       6.4810      0.00000
      6       7.9592      0.00000
      7       8.9948      0.00000
      8      10.3802      0.00000

 k-point    35 :      -0.4000    0.2000    0.1000
  band No.  band energies     occupation 
      1     -19.3597      2.00000
      2      -5.7011      2.00000
      3      -4.8875      2.00000
      4      -4.6977      2.00232
      5       6.6985      0.00000
      6       7.7659      0.00000
      7       9.2174      0.00000
      8      10.2598      0.00000

 k-point    36 :       0.4000    0.3000    0.1000
  band No.  band energies     occupation 
      1     -19.3942      2.00000
      2      -5.4011      2.00000
      3      -4.8441      2.00000
      4      -4.7298      2.00049
      5       5.9586      0.00000
      6       7.8964      0.00000
      7       8.8858      0.00000
      8      11.4628      0.00000

 k-point    37 :       0.5000    0.3000    0.1000
  band No.  band energies     occupation 
      1     -19.3606      2.00000
      2      -5.5288      2.00000
      3      -4.9806      2.00000
      4      -4.7812      2.00003
      5       6.4849      0.00000
      6       7.8314      0.00000
      7       8.6378      0.00000
      8      11.2039      0.00000

 k-point    38 :      -0.4000    0.3000    0.1000
  band No.  band energies     occupation 
      1     -19.3429      2.00000
      2      -5.5670      2.00000
      3      -5.1003      2.00000
      4      -4.7926      2.00001
      5       6.9479      0.00000
      6       7.5984      0.00000
      7       8.8669      0.00000
      8      10.8390      0.00000

 k-point    39 :      -0.3000    0.3000    0.1000
  band No.  band energies     occupation 
      1     -19.3482      2.00000
      2      -5.5273      2.00000
      3      -5.1414      2.00000
      4      -4.7488      2.00018
      5       7.2199      0.00000
      6       7.5049      0.00000
      7       8.6854      0.00000
      8      10.7594      0.00000

 k-point    40 :      -0.2000    0.3000    0.1000
  band No.  band energies     occupation 
      1     -19.3744      2.00000
      2      -5.4728      2.00000
      3      -5.0248      2.00000
      4      -4.6771      2.00554
      5       6.6460      0.00000
      6       8.1828      0.00000
      7       8.2895      0.00000
      8      10.8435      0.00000

 k-point    41 :       0.5000    0.4000    0.1000
  band No.  band energies     occupation 
      1     -19.3437      2.00000
      2      -5.5788      2.00000
      3      -4.9633      2.00000
      4      -4.8796      2.00000
      5       6.0924      0.00000
      6       7.4670      0.00000
      7       9.2704      0.00000
      8      12.0893      0.00000

 k-point    42 :      -0.4000    0.4000    0.1000
  band No.  band energies     occupation 
      1     -19.3294      2.00000
      2      -5.5460      2.00000
      3      -5.1319      2.00000
      4      -4.8926      2.00000
      5       6.3899      0.00000
      6       7.6608      0.00000
      7       9.2239      0.00000
      8      11.3756      0.00000

 k-point    43 :      -0.3000    0.4000    0.1000
  band No.  band energies     occupation 
      1     -19.3311      2.00000
      2      -5.3960      2.00000
      3      -5.3415      2.00000
      4      -4.8369      2.00000
      5       6.8371      0.00000
      6       7.8053      0.00000
      7       8.9082      0.00000
      8      10.8857      0.00000

 k-point    44 :      -0.4000    0.5000    0.1000
  band No.  band energies     occupation 
      1     -19.3243      2.00000
      2      -5.6369      2.00000
      3      -5.0078      2.00000
      4      -4.9407      2.00000
      5       5.9769      0.00000
      6       7.3187      0.00000
      7       9.8481      0.00000
      8      12.1914      0.00000

 k-point    45 :      -0.4000    0.4000    0.2000
  band No.  band energies     occupation 
      1     -19.3378      2.00000
      2      -5.4867      2.00000
      3      -5.1642      2.00000
      4      -4.8612      2.00000
      5       6.7966      0.00000
      6       8.1001      0.00000
      7       8.3506      0.00000
      8      10.9614      0.00000

 k-point    46 :      -0.3000    0.4000    0.2000
  band No.  band energies     occupation 
      1     -19.3291      2.00000
      2      -5.4191      2.00000
      3      -5.2758      2.00000
      4      -4.9034      2.00000
      5       6.8909      0.00000
      6       8.1064      0.00000
      7       8.5825      0.00000
      8      10.5180      0.00000

 k-point    47 :      -0.3000    0.5000    0.2000
  band No.  band energies     occupation 
      1     -19.3239      2.00000
      2      -5.4555      2.00000
      3      -5.2160      2.00000
      4      -4.9671      2.00000
      5       6.6213      0.00000
      6       8.0241      0.00000
      7       8.9709      0.00000
      8      10.5001      0.00000


--------------------------------------------------------------------------------------------------------


 soft charge-density along one line, spin component           1
         0         1         2         3         4         5         6         7         8         9
 total charge-density along one line
 
 pseudopotential strength for first ion, spin component:           1
 36.498  30.665   0.000  -0.000  -0.000  -0.000  -0.000  -0.000
 30.665  46.901   0.000   0.000  -0.000  -0.000  -0.000   0.000
  0.000   0.000  11.962  -0.000  -0.000 -10.005  -0.000  -0.000
 -0.000   0.000  -0.000  11.962  -0.000  -0.000 -10.005  -0.000
 -0.000  -0.000  -0.000  -0.000  11.962  -0.000  -0.000 -10.005
 -0.000  -0.000 -10.005  -0.000  -0.000  25.558   0.000   0.000
 -0.000  -0.000  -0.000 -10.005  -0.000   0.000  25.558   0.000
 -0.000   0.000  -0.000  -0.000 -10.005   0.000   0.000  25.558
 -0.000   0.000  -0.000   0.000  -0.000  -0.000   0.000  -0.000
 -0.000   0.000  -0.000   0.000   0.000  -0.000   0.000   0.000
  0.000  -0.000  -0.000   0.000   0.000   0.000   0.000   0.000
 -0.000   0.000   0.000  -0.000  -0.000   0.000  -0.000  -0.000
 -0.000   0.000  -0.000  -0.000  -0.000  -0.000  -0.000  -0.000
  0.000   0.000   0.000  -0.000   0.000  -0.000  -0.000   0.000
  0.000   0.000   0.000  -0.000  -0.000   0.000   0.000  -0.000
 -0.000  -0.000   0.000  -0.000  -0.000  -0.000  -0.000   0.000
  0.000   0.000  -0.000   0.000   0.000  -0.000  -0.000   0.000
  0.000   0.000   0.000   0.000   0.000  -0.000   0.000  -0.000
 total augmentation occupancy for first ion, spin component:           1
  1.995  -0.005   0.000   0.000   0.000   0.000   0.000   0.000   0.000  -0.000   0.000   0.000   0.000   0.000   0.000   0.000
 -0.005   0.000   0.000   0.000   0.000   0.000   0.000   0.000  -0.000  -0.000  -0.000   0.000  -0.000  -0.000   0.000  -0.000
  0.000   0.000   2.011  -0.000  -0.000  -0.002   0.000   0.000   0.000   0.000   0.000   0.000   0.000   0.000   0.000   0.000
  0.000   0.000  -0.000   2.011   0.000   0.000  -0.002  -0.000   0.000   0.000   0.000   0.000   0.000   0.000   0.000   0.000
  0.000   0.000  -0.000   0.000   2.011  -0.000  -0.000  -0.002   0.000   0.000   0.000   0.000   0.000   0.000   0.000   0.000
  0.000   0.000  -0.002   0.000   0.000   0.000  -0.000  -0.000   0.000   0.000   0.000   0.000   0.000   0.000   0.000   0.000
  0.000   0.000   0.000  -0.002  -0.000  -0.000   0.000   0.000   0.000   0.000   0.000   0.000   0.000   0.000   0.000   0.000
  0.000   0.000   0.000  -0.000  -0.002  -0.000   0.000   0.000   0.000   0.000   0.000   0.000   0.000   0.000   0.000   0.000
  0.000  -0.000   0.000   0.000   0.000   0.000   0.000   0.000   0.000   0.000   0.000   0.000   0.000   0.000   0.000   0.000
 -0.000  -0.000   0.000   0.000   0.000   0.000   0.000   0.000   0.000   0.000  -0.000   0.000   0.000   0.000   0.000  -0.000
  0.000  -0.000   0.000   0.000   0.000   0.000   0.000   0.000   0.000  -0.000   0.000   0.000  -0.000  -0.000  -0.000   0.000
  0.000   0.000   0.000   0.000   0.000   0.000   0.000   0.000   0.000   0.000   0.000   0.000   0.000   0.000   0.000   0.000
  0.000  -0.000   0.000   0.000   0.000   0.000   0.000   0.000   0.000   0.000  -0.000   0.000   0.000   0.000   0.000  -0.000
  0.000  -0.000   0.000   0.000   0.000   0.000   0.000   0.000   0.000   0.000  -0.000   0.000  -0.000   0.000   0.000  -0.000
  0.000   0.000   0.000   0.000   0.000   0.000   0.000   0.000   0.000   0.000  -0.000   0.000   0.000   0.000   0.000  -0.000
  0.000  -0.000   0.000   0.000   0.000   0.000   0.000   0.000  -0.000  -0.000   0.000   0.000  -0.000   0.000  -0.000   0.000
  0.000  -0.000   0.000   0.000   0.000   0.000   0.000   0.000   0.000  -0.000   0.000   0.000   0.000   0.000  -0.000   0.000
  0.000  -0.000   0.000   0.000   0.000   0.000   0.000   0.000   0.000   0.000  -0.000   0.000   0.000   0.000   0.000  -0.000


------------------------ aborting loop because EDIFF is reached ----------------------------------------


    CHARGE:  cpu time    0.0477: real time    0.0495
    FORLOC:  cpu time    0.0009: real time    0.0008
    FORNL :  cpu time    0.2381: real time    0.2430
    STRESS:  cpu time    1.6534: real time    1.6764
    FORCOR:  cpu time    0.0429: real time    0.0429
    FORHAR:  cpu time    0.0029: real time    0.0029
    MIXING:  cpu time    0.0009: real time    0.0009
    OFIELD:  cpu time    0.0000: real time    0.0001

  FORCE on cell =-STRESS in cart. coord.  units (eV):
  Direction    XX          YY          ZZ          XY          YZ          ZX
  --------------------------------------------------------------------------------------
  Alpha Z     8.93231     8.93231     8.93231
  Ewald    -122.93761  -122.93761  -122.93761     0.00000    -0.00000     0.00000
  Hartree    34.42997    34.42997    34.42997     0.00000    -0.00000     0.00000
  E(xc)     -31.50417   -31.43311   -31.39602     0.02891    -0.00577     0.06880
  Local     -95.79414   -95.79414   -95.79414     0.00000     0.00000     0.00000
  n-local   103.99588   105.04086   105.58105     0.38616    -0.14898     1.00469
  augment   -16.05087   -16.05086   -16.05086    -0.00000    -0.00000    -0.00000
  Kinetic   115.94914   118.38112   119.64347     0.96208    -0.23068     2.33441
  Fock        0.00000     0.00000     0.00000     0.00000     0.00000     0.00000
  -------------------------------------------------------------------------------------
  Total      -0.00093    -0.00093    -0.00093     0.00000     0.00000    -0.00000
  in kB      -0.03173    -0.03173    -0.03173     0.00000     0.00000    -0.00000
  external pressure =       -0.03 kB  Pullay stress =        0.00 kB


 VOLUME and BASIS-vectors are now :
 -----------------------------------------------------------------------------
  energy-cutoff  :      600.00
  volume of cell :       46.99
      direct lattice vectors                 reciprocal lattice vectors
     4.050525015  0.000000000  0.000000000     0.246881576 -0.142537144 -0.100788981
     2.025262508  3.507857562 -0.000000000     0.000000000  0.285074289 -0.100788981
     2.025262508  1.169285854  3.307239826    -0.000000000  0.000000000  0.302366944

  length of vectors
     4.050525015  4.050525015  4.050525016     0.302366944  0.302366944  0.302366944


 FORCES acting on ions
    electron-ion (+dipol)            ewald-force                    non-local-force                 convergence-correction
 -----------------------------------------------------------------------------------------------
   0.174E-14 0.120E-14 0.790E-14   0.373E-15 -.171E-15 -.748E-16   -.414E-23 -.227E-23 -.827E-24   0.158E-13 0.288E-14 0.193E-13
 -----------------------------------------------------------------------------------------------
   0.269E-14 0.750E-15 0.808E-14   0.373E-15 -.171E-15 -.748E-16   -.414E-23 -.227E-23 -.827E-24   0.158E-13 0.288E-14 0.193E-13
 
 
 POSITION                                       TOTAL-FORCE (eV/Angst)
 -----------------------------------------------------------------------------------
      0.00000      0.00000      0.00000        -0.000000      0.000000     -0.000000
 -----------------------------------------------------------------------------------
    total drift:                                0.000000      0.000000      0.000000


--------------------------------------------------------------------------------------------------------



  FREE ENERGIE OF THE ION-ELECTRON SYSTEM (eV)
  ---------------------------------------------------
  free  energy   TOTEN  =       -18.97150333 eV

  energy  without entropy=      -18.97453507  energy(sigma->0) =      -18.97251391
 


--------------------------------------------------------------------------------------------------------


    POTLOK:  cpu time    0.1126: real time    0.1139


--------------------------------------------------------------------------------------------------------


 Quasi-Newton relaxation of ions (Broydens 2nd method)
  g(Force)  = 0.000E+00   g(Stress)= 0.251E-07

 Reset! Starting new Quasi-Newton update for ions 


--------------------------------------------------------------------------------------------------------


  
 reached required accuracy - stopping structural energy minimisation
     LOOP+:  cpu time    8.4546: real time    8.5619
    4ORBIT:  cpu time    0.0000: real time    0.0000

 total amount of memory used by VASP MPI-rank0    37555. kBytes
=======================================================================

   base      :      30000. kBytes
   nonl-proj :       2713. kBytes
   fftplans  :       2665. kBytes
   grid      :       1531. kBytes
   one-center:         15. kBytes
   wavefun   :        631. kBytes
 
  
  
 General timing and accounting informations for this job:
 ========================================================
  
                  Total CPU time used (sec):       12.206
                            User time (sec):        8.385
                          System time (sec):        3.821
                         Elapsed time (sec):       10.288
  
                   Maximum memory used (kb):      102644.
                   Average memory used (kb):           0.
  
                          Minor page faults:        90287
                          Major page faults:            0
                 Voluntary context switches:         7253
