Cn_FCC                                  
           1
     4.050525    0.000000    0.000000
     2.025263    3.507858   -0.000000
     2.025263    1.169286    3.307240
   Kr
   1
Direct configuration=     1
   0.00000000  0.00000000  0.00000000
