Cn_FCC                                  
           1
     4.115343    0.000000    0.000000
     2.057672    3.563992   -0.000000
     2.057672    1.187997    3.360163
   Kr
   1
Direct configuration=     1
   0.00000000  0.00000000  0.00000000
Cn_FCC                                  
           1
     4.114009    0.000000    0.000000
     2.057005    3.562837   -0.000000
     2.057005    1.187612    3.359075
   Kr
   1
Direct configuration=     2
   0.00000000  0.00000000  0.00000000
Cn_FCC                                  
           1
     4.064184    0.000000    0.000000
     2.032092    3.519686   -0.000000
     2.032092    1.173229    3.318392
   Kr
   1
Direct configuration=     3
   0.00000000  0.00000000  0.00000000
Cn_FCC                                  
           1
     4.050525    0.000000    0.000000
     2.025263    3.507858   -0.000000
     2.025263    1.169286    3.307240
   Kr
   1
Direct configuration=     4
   0.00000000  0.00000000  0.00000000
