   1   1   0   0
  0.2623385E+02  0.3242103E-09  0.3242103E-09  0.3242103E-09  0.1000000E-15
  1.000000000000000E-004
  CAR 
 Og_FCC                                  
    103.91479425    -10.71499169  301      3.51820673      1.00000000
    -10.715  0.0000E+00  0.0000E+00
    -10.333  0.0000E+00  0.0000E+00
     -9.951  0.0000E+00  0.0000E+00
     -9.569  0.0000E+00  0.0000E+00
     -9.187  0.0000E+00  0.0000E+00
     -8.804  0.0000E+00  0.0000E+00
     -8.422  0.0000E+00  0.0000E+00
     -8.040  0.0000E+00  0.0000E+00
     -7.658  0.0000E+00  0.0000E+00
     -7.276  0.0000E+00  0.0000E+00
     -6.894  0.0000E+00  0.0000E+00
     -6.512  0.0000E+00  0.0000E+00
     -6.130  0.0000E+00  0.0000E+00
     -5.748  0.0000E+00  0.0000E+00
     -5.366  0.0000E+00  0.9259E-02
     -4.984  0.0000E+00  0.9259E-02
     -4.601  0.0000E+00  0.1204E+00
     -4.219  0.0000E+00  0.1204E+00
     -3.837  0.0000E+00  0.1759E+00
     -3.455  0.0000E+00  0.3981E+00
     -3.073  0.0000E+00  0.5093E+00
     -2.691  0.0000E+00  0.5648E+00
     -2.309  0.0000E+00  0.1306E+01
     -1.927  0.1504E-12  0.1843E+01
     -1.545  0.0000E+00  0.4176E+01
     -1.163  0.5933E-01  0.4495E+01
     -0.780  0.0000E+00  0.4806E+01
     -0.398  0.0000E+00  0.5250E+01
     -0.016  0.0000E+00  0.5750E+01
      0.366  0.0000E+00  0.5880E+01
      0.748  0.0000E+00  0.6065E+01
      1.130  0.0000E+00  0.6407E+01
      1.512  0.1849E+00  0.8330E+01
      1.894  0.0000E+00  0.9648E+01
      2.276  0.0000E+00  0.1057E+02
      2.658  0.0000E+00  0.1091E+02
      3.041  0.0000E+00  0.1170E+02
      3.423  0.0000E+00  0.1199E+02
      3.805  0.0000E+00  0.1206E+02
      4.187  0.0000E+00  0.1206E+02
      4.569  0.0000E+00  0.1206E+02
      4.951  0.0000E+00  0.1206E+02
      5.333  0.0000E+00  0.1217E+02
      5.715  0.0000E+00  0.1218E+02
      6.097  0.0000E+00  0.1262E+02
      6.479  0.0000E+00  0.1273E+02
      6.862  0.0000E+00  0.1314E+02
      7.244  0.0000E+00  0.1321E+02
      7.626  0.0000E+00  0.1321E+02
      8.008  0.0000E+00  0.1338E+02
      8.390  0.0000E+00  0.1360E+02
      8.772  0.0000E+00  0.1360E+02
      9.154  0.0000E+00  0.1368E+02
      9.536  0.0000E+00  0.1390E+02
      9.918  0.0000E+00  0.1390E+02
     10.300  0.4467E-01  0.1403E+02
     10.683  0.0000E+00  0.1436E+02
     11.065  0.0000E+00  0.1436E+02
     11.447  0.0000E+00  0.1442E+02
     11.829  0.0000E+00  0.1499E+02
     12.211  0.0000E+00  0.1521E+02
     12.593  0.0000E+00  0.1532E+02
     12.975  0.0000E+00  0.1549E+02
     13.357  0.0000E+00  0.1577E+02
     13.739  0.0000E+00  0.1584E+02
     14.121  0.0000E+00  0.1596E+02
     14.504  0.0000E+00  0.1619E+02
     14.886  0.2907E+00  0.1630E+02
     15.268  0.0000E+00  0.1637E+02
     15.650  0.0000E+00  0.1687E+02
     16.032  0.1454E+00  0.1737E+02
     16.414  0.0000E+00  0.1737E+02
     16.796  0.0000E+00  0.1748E+02
     17.178  0.0000E+00  0.1770E+02
     17.560  0.0000E+00  0.1789E+02
     17.942  0.0000E+00  0.1806E+02
     18.325  0.0000E+00  0.1806E+02
     18.707  0.0000E+00  0.1836E+02
     19.089  0.0000E+00  0.1881E+02
     19.471  0.0000E+00  0.1892E+02
     19.853  0.0000E+00  0.1936E+02
     20.235  0.0000E+00  0.1942E+02
     20.617  0.0000E+00  0.2008E+02
     20.999  0.0000E+00  0.2060E+02
     21.381  0.0000E+00  0.2105E+02
     21.763  0.1939E+00  0.2123E+02
     22.146  0.0000E+00  0.2203E+02
     22.528  0.0000E+00  0.2219E+02
     22.910  0.0000E+00  0.2281E+02
     23.292  0.0000E+00  0.2344E+02
     23.674  0.0000E+00  0.2365E+02
     24.056  0.0000E+00  0.2381E+02
     24.438  0.0000E+00  0.2394E+02
     24.820  0.0000E+00  0.2436E+02
     25.202  0.0000E+00  0.2453E+02
     25.584  0.0000E+00  0.2482E+02
     25.967  0.0000E+00  0.2560E+02
     26.349  0.0000E+00  0.2594E+02
     26.731  0.0000E+00  0.2627E+02
     27.113  0.0000E+00  0.2634E+02
     27.495  0.0000E+00  0.2679E+02
     27.877  0.0000E+00  0.2781E+02
     28.259  0.0000E+00  0.2815E+02
     28.641  0.0000E+00  0.2828E+02
     29.023  0.0000E+00  0.2870E+02
     29.405  0.0000E+00  0.2900E+02
     29.788  0.0000E+00  0.2934E+02
     30.170  0.0000E+00  0.2968E+02
     30.552  0.0000E+00  0.3034E+02
     30.934  0.0000E+00  0.3064E+02
     31.316  0.0000E+00  0.3088E+02
     31.698  0.0000E+00  0.3166E+02
     32.080  0.0000E+00  0.3240E+02
     32.462  0.0000E+00  0.3269E+02
     32.844  0.0000E+00  0.3323E+02
     33.226  0.0000E+00  0.3412E+02
     33.609  0.0000E+00  0.3440E+02
     33.991  0.0000E+00  0.3473E+02
     34.373  0.0000E+00  0.3525E+02
     34.755  0.0000E+00  0.3526E+02
     35.137  0.0000E+00  0.3626E+02
     35.519  0.1905E+00  0.3673E+02
     35.901  0.0000E+00  0.3703E+02
     36.283  0.0000E+00  0.3710E+02
     36.665  0.0000E+00  0.3806E+02
     37.047  0.2899E+00  0.3828E+02
     37.430  0.0000E+00  0.3830E+02
     37.812  0.0000E+00  0.3887E+02
     38.194  0.0000E+00  0.3924E+02
     38.576  0.0000E+00  0.3946E+02
     38.958  0.0000E+00  0.4010E+02
     39.340  0.0000E+00  0.4066E+02
     39.722  0.0000E+00  0.4077E+02
     40.104  0.0000E+00  0.4186E+02
     40.486  0.0000E+00  0.4205E+02
     40.868  0.0000E+00  0.4305E+02
     41.251  0.0000E+00  0.4310E+02
     41.633  0.0000E+00  0.4368E+02
     42.015  0.8457E-03  0.4442E+02
     42.397  0.2423E-01  0.4487E+02
     42.779  0.0000E+00  0.4543E+02
     43.161  0.0000E+00  0.4565E+02
     43.543  0.0000E+00  0.4576E+02
     43.925  0.0000E+00  0.4694E+02
     44.307  0.0000E+00  0.4694E+02
     44.689  0.0000E+00  0.4750E+02
     45.072  0.1454E+00  0.4806E+02
     45.454  0.0000E+00  0.4857E+02
     45.836  0.2631E-05  0.4913E+02
     46.218  0.0000E+00  0.4991E+02
     46.600  0.0000E+00  0.5020E+02
     46.982  0.0000E+00  0.5120E+02
     47.364  0.0000E+00  0.5148E+02
     47.746  0.0000E+00  0.5185E+02
     48.128  0.0000E+00  0.5219E+02
     48.510  0.0000E+00  0.5219E+02
     48.892  0.0000E+00  0.5318E+02
     49.275  0.2908E+00  0.5379E+02
     49.657  0.0000E+00  0.5425E+02
     50.039  0.1308E-14  0.5494E+02
     50.421  0.1939E+00  0.5529E+02
     50.803  0.0000E+00  0.5575E+02
     51.185  0.0000E+00  0.5608E+02
     51.567  0.0000E+00  0.5642E+02
     51.949  0.1454E+00  0.5692E+02
     52.331  0.0000E+00  0.5814E+02
     52.713  0.0000E+00  0.5875E+02
     53.096  0.0000E+00  0.5908E+02
     53.478  0.0000E+00  0.5947E+02
     53.860  0.0000E+00  0.6014E+02
     54.242  0.0000E+00  0.6050E+02
     54.624  0.0000E+00  0.6067E+02
     55.006  0.0000E+00  0.6090E+02
     55.388  0.0000E+00  0.6131E+02
     55.770  0.0000E+00  0.6201E+02
     56.152  0.0000E+00  0.6307E+02
     56.534  0.0000E+00  0.6391E+02
     56.917  0.0000E+00  0.6459E+02
     57.299  0.0000E+00  0.6515E+02
     57.681  0.0000E+00  0.6594E+02
     58.063  0.0000E+00  0.6622E+02
     58.445  0.0000E+00  0.6669E+02
     58.827  0.0000E+00  0.6731E+02
     59.209  0.0000E+00  0.6778E+02
     59.591  0.0000E+00  0.6841E+02
     59.973  0.0000E+00  0.6870E+02
     60.355  0.0000E+00  0.6915E+02
     60.738  0.0000E+00  0.7004E+02
     61.120  0.0000E+00  0.7039E+02
     61.502  0.0000E+00  0.7083E+02
     61.884  0.0000E+00  0.7157E+02
     62.266  0.0000E+00  0.7220E+02
     62.648  0.0000E+00  0.7256E+02
     63.030  0.0000E+00  0.7348E+02
     63.412  0.0000E+00  0.7394E+02
     63.794  0.0000E+00  0.7455E+02
     64.176  0.0000E+00  0.7466E+02
     64.559  0.0000E+00  0.7529E+02
     64.941  0.0000E+00  0.7619E+02
     65.323  0.0000E+00  0.7669E+02
     65.705  0.0000E+00  0.7669E+02
     66.087  0.0000E+00  0.7747E+02
     66.469  0.0000E+00  0.7842E+02
     66.851  0.0000E+00  0.7864E+02
     67.233  0.0000E+00  0.7958E+02
     67.615  0.0000E+00  0.7992E+02
     67.997  0.0000E+00  0.8131E+02
     68.380  0.0000E+00  0.8155E+02
     68.762  0.5816E+00  0.8188E+02
     69.144  0.0000E+00  0.8267E+02
     69.526  0.0000E+00  0.8396E+02
     69.908  0.2953E-05  0.8456E+02
     70.290  0.2065E+00  0.8499E+02
     70.672  0.0000E+00  0.8564E+02
     71.054  0.0000E+00  0.8581E+02
     71.436  0.0000E+00  0.8631E+02
     71.818  0.0000E+00  0.8724E+02
     72.201  0.0000E+00  0.8798E+02
     72.583  0.0000E+00  0.8857E+02
     72.965  0.0000E+00  0.8865E+02
     73.347  0.0000E+00  0.8877E+02
     73.729  0.0000E+00  0.8888E+02
     74.111  0.0000E+00  0.8962E+02
     74.493  0.0000E+00  0.8998E+02
     74.875  0.0000E+00  0.9069E+02
     75.257  0.0000E+00  0.9124E+02
     75.639  0.5816E+00  0.9230E+02
     76.022  0.0000E+00  0.9287E+02
     76.404  0.0000E+00  0.9320E+02
     76.786  0.1939E+00  0.9475E+02
     77.168  0.0000E+00  0.9590E+02
     77.550  0.0000E+00  0.9658E+02
     77.932  0.0000E+00  0.9714E+02
     78.314  0.0000E+00  0.9773E+02
     78.696  0.0000E+00  0.9806E+02
     79.078  0.0000E+00  0.9834E+02
     79.460  0.0000E+00  0.9894E+02
     79.843  0.4847E-01  0.9980E+02
     80.225  0.0000E+00  0.1000E+03
     80.607  0.0000E+00  0.1016E+03
     80.989  0.1454E+00  0.1023E+03
     81.371  0.0000E+00  0.1030E+03
     81.753  0.0000E+00  0.1039E+03
     82.135  0.0000E+00  0.1041E+03
     82.517  0.0000E+00  0.1050E+03
     82.899  0.0000E+00  0.1053E+03
     83.281  0.0000E+00  0.1061E+03
     83.664  0.0000E+00  0.1069E+03
     84.046  0.0000E+00  0.1072E+03
     84.428  0.0000E+00  0.1072E+03
     84.810  0.1438E+00  0.1076E+03
     85.192  0.0000E+00  0.1077E+03
     85.574  0.0000E+00  0.1080E+03
     85.956  0.5681E+00  0.1088E+03
     86.338  0.6862E-08  0.1104E+03
     86.720  0.7229E+00  0.1112E+03
     87.102  0.0000E+00  0.1121E+03
     87.485  0.0000E+00  0.1132E+03
     87.867  0.0000E+00  0.1133E+03
     88.249  0.0000E+00  0.1138E+03
     88.631  0.0000E+00  0.1147E+03
     89.013  0.0000E+00  0.1150E+03
     89.395  0.0000E+00  0.1156E+03
     89.777  0.0000E+00  0.1162E+03
     90.159  0.2908E+00  0.1174E+03
     90.541  0.0000E+00  0.1178E+03
     90.923  0.0000E+00  0.1189E+03
     91.306  0.0000E+00  0.1195E+03
     91.688  0.0000E+00  0.1204E+03
     92.070  0.0000E+00  0.1214E+03
     92.452  0.0000E+00  0.1225E+03
     92.834  0.5774E-09  0.1240E+03
     93.216  0.0000E+00  0.1252E+03
     93.598  0.5816E+00  0.1260E+03
     93.980  0.0000E+00  0.1261E+03
     94.362  0.0000E+00  0.1265E+03
     94.744  0.0000E+00  0.1270E+03
     95.127  0.0000E+00  0.1274E+03
     95.509  0.0000E+00  0.1276E+03
     95.891  0.0000E+00  0.1278E+03
     96.273  0.0000E+00  0.1278E+03
     96.655  0.0000E+00  0.1278E+03
     97.037  0.0000E+00  0.1278E+03
     97.419  0.0000E+00  0.1279E+03
     97.801  0.0000E+00  0.1279E+03
     98.183  0.0000E+00  0.1279E+03
     98.565  0.0000E+00  0.1279E+03
     98.948  0.0000E+00  0.1280E+03
     99.330  0.0000E+00  0.1280E+03
     99.712  0.0000E+00  0.1280E+03
    100.094  0.0000E+00  0.1280E+03
    100.476  0.0000E+00  0.1280E+03
    100.858  0.0000E+00  0.1280E+03
    101.240  0.0000E+00  0.1280E+03
    101.622  0.0000E+00  0.1280E+03
    102.004  0.0000E+00  0.1280E+03
    102.386  0.0000E+00  0.1280E+03
    102.768  0.0000E+00  0.1280E+03
    103.151  0.0000E+00  0.1280E+03
    103.533  0.0000E+00  0.1280E+03
    103.915  0.0000E+00  0.1280E+03
