Og_FCC                                  
           1
     3.242103    0.000000    0.000000
    -1.080689    3.056688    0.000000
    -1.080689   -1.528319    2.647184
   Cn
   1
Direct configuration=     1
   0.00000000  0.00000000  0.00000000
