   1   1   0   0
  0.6420946E+02  0.4494741E-09  0.4494741E-09  0.4494741E-09  0.5000000E-15
  1.000000000000000E-004
  CAR 
 Og_FCC                                  
     15.06762829    -30.92275614  301      0.86377699      1.00000000
    -30.923  0.0000E+00  0.0000E+00
    -30.769  0.0000E+00  0.0000E+00
    -30.616  0.0000E+00  0.0000E+00
    -30.463  0.0000E+00  0.0000E+00
    -30.310  0.0000E+00  0.0000E+00
    -30.156  0.0000E+00  0.0000E+00
    -30.003  0.0000E+00  0.0000E+00
    -29.850  0.0000E+00  0.0000E+00
    -29.696  0.0000E+00  0.0000E+00
    -29.543  0.0000E+00  0.0000E+00
    -29.390  0.0000E+00  0.0000E+00
    -29.236 -0.1897E-26 -0.2908E-27
    -29.083 -0.4797E-09 -0.7354E-10
    -28.930 -0.4669E+00 -0.7158E-01
    -28.777  0.6750E+02  0.1028E+02
    -28.623 -0.1803E+01  0.1000E+02
    -28.470 -0.3801E-05  0.1000E+02
    -28.317  0.0000E+00  0.1000E+02
    -28.163  0.0000E+00  0.1000E+02
    -28.010  0.0000E+00  0.1000E+02
    -27.857  0.0000E+00  0.1000E+02
    -27.703  0.0000E+00  0.1000E+02
    -27.550  0.0000E+00  0.1000E+02
    -27.397  0.0000E+00  0.1000E+02
    -27.244  0.0000E+00  0.1000E+02
    -27.090  0.0000E+00  0.1000E+02
    -26.937  0.0000E+00  0.1000E+02
    -26.784  0.0000E+00  0.1000E+02
    -26.630  0.0000E+00  0.1000E+02
    -26.477  0.0000E+00  0.1000E+02
    -26.324  0.0000E+00  0.1000E+02
    -26.170  0.0000E+00  0.1000E+02
    -26.017  0.0000E+00  0.1000E+02
    -25.864  0.0000E+00  0.1000E+02
    -25.711  0.0000E+00  0.1000E+02
    -25.557  0.0000E+00  0.1000E+02
    -25.404  0.0000E+00  0.1000E+02
    -25.251  0.0000E+00  0.1000E+02
    -25.097  0.0000E+00  0.1000E+02
    -24.944  0.0000E+00  0.1000E+02
    -24.791  0.0000E+00  0.1000E+02
    -24.637  0.0000E+00  0.1000E+02
    -24.484  0.0000E+00  0.1000E+02
    -24.331  0.0000E+00  0.1000E+02
    -24.177  0.0000E+00  0.1000E+02
    -24.024  0.0000E+00  0.1000E+02
    -23.871  0.0000E+00  0.1000E+02
    -23.718  0.0000E+00  0.1000E+02
    -23.564  0.0000E+00  0.1000E+02
    -23.411  0.0000E+00  0.1000E+02
    -23.258  0.0000E+00  0.1000E+02
    -23.104  0.0000E+00  0.1000E+02
    -22.951  0.0000E+00  0.1000E+02
    -22.798  0.0000E+00  0.1000E+02
    -22.644  0.0000E+00  0.1000E+02
    -22.491  0.0000E+00  0.1000E+02
    -22.338 -0.8439E-48  0.1000E+02
    -22.185 -0.3850E-24  0.1000E+02
    -22.031 -0.1380E-08  0.1000E+02
    -21.878 -0.4655E-01  0.9993E+01
    -21.725  0.1137E+02  0.1174E+02
    -21.571  0.1724E+01  0.1200E+02
    -21.418 -0.6982E-04  0.1200E+02
    -21.265  0.0000E+00  0.1200E+02
    -21.111  0.0000E+00  0.1200E+02
    -20.958  0.0000E+00  0.1200E+02
    -20.805  0.0000E+00  0.1200E+02
    -20.652  0.0000E+00  0.1200E+02
    -20.498  0.0000E+00  0.1200E+02
    -20.345  0.0000E+00  0.1200E+02
    -20.192  0.0000E+00  0.1200E+02
    -20.038  0.0000E+00  0.1200E+02
    -19.885  0.0000E+00  0.1200E+02
    -19.732  0.0000E+00  0.1200E+02
    -19.578  0.0000E+00  0.1200E+02
    -19.425  0.0000E+00  0.1200E+02
    -19.272  0.0000E+00  0.1200E+02
    -19.119  0.0000E+00  0.1200E+02
    -18.965  0.0000E+00  0.1200E+02
    -18.812  0.0000E+00  0.1200E+02
    -18.659  0.0000E+00  0.1200E+02
    -18.505  0.0000E+00  0.1200E+02
    -18.352  0.0000E+00  0.1200E+02
    -18.199  0.0000E+00  0.1200E+02
    -18.045  0.0000E+00  0.1200E+02
    -17.892  0.0000E+00  0.1200E+02
    -17.739  0.0000E+00  0.1200E+02
    -17.586  0.0000E+00  0.1200E+02
    -17.432  0.0000E+00  0.1200E+02
    -17.279  0.0000E+00  0.1200E+02
    -17.126  0.0000E+00  0.1200E+02
    -16.972  0.0000E+00  0.1200E+02
    -16.819  0.0000E+00  0.1200E+02
    -16.666  0.0000E+00  0.1200E+02
    -16.512  0.0000E+00  0.1200E+02
    -16.359  0.0000E+00  0.1200E+02
    -16.206  0.0000E+00  0.1200E+02
    -16.053  0.0000E+00  0.1200E+02
    -15.899  0.0000E+00  0.1200E+02
    -15.746  0.0000E+00  0.1200E+02
    -15.593  0.0000E+00  0.1200E+02
    -15.439  0.0000E+00  0.1200E+02
    -15.286  0.0000E+00  0.1200E+02
    -15.133  0.0000E+00  0.1200E+02
    -14.979  0.0000E+00  0.1200E+02
    -14.826  0.0000E+00  0.1200E+02
    -14.673  0.0000E+00  0.1200E+02
    -14.520  0.0000E+00  0.1200E+02
    -14.366  0.0000E+00  0.1200E+02
    -14.213  0.0000E+00  0.1200E+02
    -14.060  0.0000E+00  0.1200E+02
    -13.906  0.0000E+00  0.1200E+02
    -13.753  0.0000E+00  0.1200E+02
    -13.600  0.0000E+00  0.1200E+02
    -13.446  0.0000E+00  0.1200E+02
    -13.293  0.0000E+00  0.1200E+02
    -13.140  0.0000E+00  0.1200E+02
    -12.987  0.0000E+00  0.1200E+02
    -12.833  0.0000E+00  0.1200E+02
    -12.680  0.0000E+00  0.1200E+02
    -12.527  0.0000E+00  0.1200E+02
    -12.373  0.0000E+00  0.1200E+02
    -12.220  0.0000E+00  0.1200E+02
    -12.067  0.0000E+00  0.1200E+02
    -11.913  0.0000E+00  0.1200E+02
    -11.760  0.0000E+00  0.1200E+02
    -11.607  0.0000E+00  0.1200E+02
    -11.453  0.0000E+00  0.1200E+02
    -11.300  0.0000E+00  0.1200E+02
    -11.147  0.0000E+00  0.1200E+02
    -10.994  0.0000E+00  0.1200E+02
    -10.840  0.0000E+00  0.1200E+02
    -10.687  0.0000E+00  0.1200E+02
    -10.534  0.0000E+00  0.1200E+02
    -10.380  0.0000E+00  0.1200E+02
    -10.227  0.0000E+00  0.1200E+02
    -10.074  0.0000E+00  0.1200E+02
     -9.920  0.0000E+00  0.1200E+02
     -9.767  0.0000E+00  0.1200E+02
     -9.614  0.0000E+00  0.1200E+02
     -9.461  0.0000E+00  0.1200E+02
     -9.307  0.0000E+00  0.1200E+02
     -9.154  0.0000E+00  0.1200E+02
     -9.001  0.0000E+00  0.1200E+02
     -8.847  0.0000E+00  0.1200E+02
     -8.694  0.0000E+00  0.1200E+02
     -8.541  0.0000E+00  0.1200E+02
     -8.387  0.0000E+00  0.1200E+02
     -8.234  0.0000E+00  0.1200E+02
     -8.081  0.0000E+00  0.1200E+02
     -7.928  0.0000E+00  0.1200E+02
     -7.774  0.0000E+00  0.1200E+02
     -7.621  0.0000E+00  0.1200E+02
     -7.468  0.0000E+00  0.1200E+02
     -7.314  0.0000E+00  0.1200E+02
     -7.161  0.0000E+00  0.1200E+02
     -7.008  0.0000E+00  0.1200E+02
     -6.854  0.0000E+00  0.1200E+02
     -6.701  0.0000E+00  0.1200E+02
     -6.548  0.0000E+00  0.1200E+02
     -6.395  0.0000E+00  0.1200E+02
     -6.241  0.0000E+00  0.1200E+02
     -6.088  0.0000E+00  0.1200E+02
     -5.935  0.0000E+00  0.1200E+02
     -5.781  0.0000E+00  0.1200E+02
     -5.628  0.0000E+00  0.1200E+02
     -5.475  0.0000E+00  0.1200E+02
     -5.321  0.0000E+00  0.1200E+02
     -5.168  0.0000E+00  0.1200E+02
     -5.015  0.0000E+00  0.1200E+02
     -4.862  0.0000E+00  0.1200E+02
     -4.708  0.0000E+00  0.1200E+02
     -4.555  0.0000E+00  0.1200E+02
     -4.402  0.0000E+00  0.1200E+02
     -4.248  0.0000E+00  0.1200E+02
     -4.095  0.0000E+00  0.1200E+02
     -3.942  0.0000E+00  0.1200E+02
     -3.788  0.0000E+00  0.1200E+02
     -3.635  0.0000E+00  0.1200E+02
     -3.482  0.0000E+00  0.1200E+02
     -3.329  0.0000E+00  0.1200E+02
     -3.175  0.0000E+00  0.1200E+02
     -3.022  0.0000E+00  0.1200E+02
     -2.869  0.0000E+00  0.1200E+02
     -2.715  0.0000E+00  0.1200E+02
     -2.562  0.0000E+00  0.1200E+02
     -2.409  0.0000E+00  0.1200E+02
     -2.255  0.0000E+00  0.1200E+02
     -2.102 -0.3336E-37  0.1200E+02
     -1.949 -0.7286E-17  0.1200E+02
     -1.796 -0.7506E-05  0.1200E+02
     -1.642  0.6941E-01  0.1201E+02
     -1.489  0.7227E+00  0.1212E+02
     -1.336  0.2606E+01  0.1252E+02
     -1.182  0.4284E+01  0.1318E+02
     -1.029  0.2624E+01  0.1358E+02
     -0.876  0.1105E+01  0.1375E+02
     -0.722  0.9777E+00  0.1390E+02
     -0.569  0.1758E+01  0.1417E+02
     -0.416  0.1364E+01  0.1438E+02
     -0.262  0.2015E+01  0.1469E+02
     -0.109  0.2415E+01  0.1506E+02
      0.044  0.3203E+01  0.1555E+02
      0.197  0.2973E+01  0.1600E+02
      0.351  0.5077E+01  0.1678E+02
      0.504  0.3603E+01  0.1733E+02
      0.657  0.2846E+01  0.1777E+02
      0.811  0.1214E+01  0.1796E+02
      0.964  0.2831E+00  0.1800E+02
      1.117 -0.2057E-03  0.1800E+02
      1.271  0.0000E+00  0.1800E+02
      1.424  0.0000E+00  0.1800E+02
      1.577  0.0000E+00  0.1800E+02
      1.730  0.0000E+00  0.1800E+02
      1.884  0.0000E+00  0.1800E+02
      2.037  0.0000E+00  0.1800E+02
      2.190  0.0000E+00  0.1800E+02
      2.344  0.0000E+00  0.1800E+02
      2.497  0.0000E+00  0.1800E+02
      2.650 -0.5978E-44  0.1800E+02
      2.804 -0.1022E-21  0.1800E+02
      2.957 -0.8935E-08  0.1800E+02
      3.110  0.4623E-03  0.1800E+02
      3.263  0.1748E-01  0.1800E+02
      3.417 -0.4414E-04  0.1800E+02
      3.570 -0.1424E-10  0.1800E+02
      3.723 -0.2289E-02  0.1800E+02
      3.877  0.1504E+00  0.1803E+02
      4.030  0.3314E-01  0.1803E+02
      4.183  0.6931E-01  0.1804E+02
      4.337 -0.1817E-04  0.1804E+02
      4.490 -0.4850E-02  0.1804E+02
      4.643  0.2260E+00  0.1808E+02
      4.796 -0.5941E-02  0.1807E+02
      4.950  0.3366E+00  0.1813E+02
      5.103  0.2357E+00  0.1816E+02
      5.256 -0.5958E-04  0.1816E+02
      5.410  0.8290E-01  0.1817E+02
      5.563  0.7124E+00  0.1828E+02
      5.716  0.2808E+00  0.1833E+02
      5.870  0.6106E+00  0.1842E+02
      6.023  0.1295E+01  0.1862E+02
      6.176  0.5080E+00  0.1870E+02
      6.329  0.7638E+00  0.1881E+02
      6.483  0.7668E+00  0.1893E+02
      6.636  0.2030E+01  0.1924E+02
      6.789  0.1290E+01  0.1944E+02
      6.943  0.1200E+01  0.1962E+02
      7.096  0.7317E+00  0.1974E+02
      7.249  0.1462E+00  0.1976E+02
      7.403  0.1158E+01  0.1994E+02
      7.556  0.5365E+00  0.2002E+02
      7.709  0.1121E+01  0.2019E+02
      7.862  0.3966E-01  0.2020E+02
      8.016  0.7489E+00  0.2031E+02
      8.169  0.6316E+00  0.2041E+02
      8.322  0.1881E+01  0.2070E+02
      8.476  0.3123E+01  0.2118E+02
      8.629  0.1496E+01  0.2140E+02
      8.782  0.1062E+01  0.2157E+02
      8.936  0.3038E+01  0.2203E+02
      9.089  0.3131E+01  0.2251E+02
      9.242  0.1152E+01  0.2269E+02
      9.395  0.2496E+00  0.2273E+02
      9.549  0.4124E+00  0.2279E+02
      9.702  0.4076E+00  0.2285E+02
      9.855  0.8046E+00  0.2298E+02
     10.009  0.3213E+01  0.2347E+02
     10.162  0.3117E+01  0.2395E+02
     10.315  0.1948E+01  0.2425E+02
     10.469  0.2335E+01  0.2460E+02
     10.622  0.2150E+01  0.2493E+02
     10.775  0.1377E+01  0.2514E+02
     10.928  0.3157E+00  0.2519E+02
     11.082  0.1026E+01  0.2535E+02
     11.235  0.6518E+00  0.2545E+02
     11.388  0.2557E+00  0.2549E+02
     11.542  0.5753E+00  0.2558E+02
     11.695  0.5371E+00  0.2566E+02
     11.848  0.7180E+00  0.2577E+02
     12.002  0.3789E+00  0.2583E+02
     12.155  0.1024E+01  0.2599E+02
     12.308 -0.1220E-01  0.2598E+02
     12.462 -0.6548E-07  0.2598E+02
     12.615 -0.3411E-23  0.2598E+02
     12.768 -0.3063E-08  0.2598E+02
     12.921 -0.3577E-02  0.2598E+02
     13.075  0.1120E+00  0.2600E+02
     13.228 -0.1002E-02  0.2600E+02
     13.381  0.0000E+00  0.2600E+02
     13.535  0.0000E+00  0.2600E+02
     13.688  0.0000E+00  0.2600E+02
     13.841  0.0000E+00  0.2600E+02
     13.995  0.0000E+00  0.2600E+02
     14.148  0.0000E+00  0.2600E+02
     14.301  0.0000E+00  0.2600E+02
     14.454  0.0000E+00  0.2600E+02
     14.608  0.0000E+00  0.2600E+02
     14.761  0.0000E+00  0.2600E+02
     14.914  0.0000E+00  0.2600E+02
     15.068  0.0000E+00  0.2600E+02
