    1    1    1    1
  0.6420946E+02  0.4494741E-09  0.4494741E-09  0.4494741E-09  0.5000000E-15
  1.000000000000000E-004
  CAR 
 Og_FCC                                  
     18     35     13
 
  0.0000000E+00  0.0000000E+00  0.0000000E+00  0.1371742E-02
    1      -28.830614   1.000000
    2      -28.830614   1.000000
    3      -28.830614   1.000000
    4      -28.828389   1.000000
    5      -28.828389   1.000000
    6      -21.817908   1.000000
    7        0.851475   0.701398
    8        0.851475   0.701398
    9        0.851475   0.701397
   10        3.147307   0.000000
   11       10.038976   0.000000
   12       10.038976   0.000000
   13       10.039020   0.000000
 
  0.1111111E+00 -0.5924648E-17  0.0000000E+00  0.1097394E-01
    1      -28.830443   1.000000
    2      -28.830299   1.000000
    3      -28.830299   1.000000
    4      -28.828307   1.000000
    5      -28.828307   1.000000
    6      -21.810638   1.000000
    7        0.286420   1.000000
    8        0.810836   1.030203
    9        0.810836   1.030203
   10        3.811367   0.000000
   11        9.329350   0.000000
   12       10.159675   0.000000
   13       10.159675   0.000000
 
  0.2222222E+00  0.2028492E-17  0.1387779E-16  0.1097394E-01
    1      -28.829979   1.000000
    2      -28.829925   1.000000
    3      -28.829924   1.000000
    4      -28.827682   1.000000
    5      -28.827682   1.000000
    6      -21.792054   1.000000
    7       -0.593628   1.000000
    8        0.711290   1.000071
    9        0.711290   1.000071
   10        4.837870   0.000000
   11        9.088151   0.000000
   12       10.190408   0.000000
   13       10.190409   0.000000
 
  0.3333333E+00 -0.2471284E-16 -0.1387779E-16  0.1097394E-01
    1      -28.829996   1.000000
    2      -28.829996   1.000000
    3      -28.829494   1.000000
    4      -28.826468   1.000000
    5      -28.826468   1.000000
    6      -21.770736   1.000000
    7       -1.277537   1.000000
    8        0.603349   1.000000
    9        0.603349   1.000000
   10        5.402234   0.000000
   11        9.767302   0.000000
   12        9.873400   0.000000
   13        9.873400   0.000000
 
  0.4444444E+00  0.4056983E-17  0.2775558E-16  0.1097394E-01
    1      -28.830135   1.000000
    2      -28.830135   1.000000
    3      -28.829171   1.000000
    4      -28.825575   1.000000
    5      -28.825575   1.000000
    6      -21.756739   1.000000
    7       -1.640305   1.000000
    8        0.535588   1.000000
    9        0.535588   1.000000
   10        5.530309   0.000000
   11        9.645268   0.000000
   12        9.645268   0.000000
   13       10.071896   0.000000
 
  0.1111111E+00  0.1111111E+00  0.0000000E+00  0.8230453E-02
    1      -28.830816   1.000000
    2      -28.829936   1.000000
    3      -28.829936   1.000000
    4      -28.828576   1.000000
    5      -28.828084   1.000000
    6      -21.808224   1.000000
    7        0.256000   1.000000
    8        0.723276   1.000260
    9        0.723276   1.000260
   10        4.038669   0.000000
   11        9.039136   0.000000
   12       10.328764   0.000000
   13       10.330886   0.000000
 
  0.2222222E+00  0.1111111E+00  0.2775558E-16  0.3292181E-01
    1      -28.830720   1.000000
    2      -28.829383   1.000000
    3      -28.829363   1.000000
    4      -28.828400   1.000000
    5      -28.827505   1.000000
    6      -21.793404   1.000000
    7       -0.403883   1.000000
    8        0.591942   1.000000
    9        0.628435   1.000000
   10        4.952692   0.000000
   11        8.665981   0.000000
   12        9.803736   0.000000
   13       10.551039   0.000000
 
  0.3333333E+00  0.1111111E+00  0.2775558E-16  0.3292181E-01
    1      -28.830335   1.000000
    2      -28.829336   1.000000
    3      -28.829310   1.000000
    4      -28.827370   1.000000
    5      -28.826351   1.000000
    6      -21.772983   1.000000
    7       -1.071096   1.000000
    8        0.480295   1.000000
    9        0.482777   1.000000
   10        5.709917   0.000000
   11        8.999674   0.000000
   12        9.165893   0.000000
   13       10.362261   0.000000
 
  0.4444444E+00  0.1111111E+00  0.0000000E+00  0.3292181E-01
    1      -28.830202   1.000000
    2      -28.829520   1.000000
    3      -28.828995   1.000000
    4      -28.826312   1.000000
    5      -28.825502   1.000000
    6      -21.756509   1.000000
    7       -1.494928   1.000000
    8        0.322762   1.000000
    9        0.435629   1.000000
   10        5.968733   0.000000
   11        8.803052   0.000000
   12       10.031670   0.000000
   13       10.184950   0.000000
 
 -0.4444444E+00  0.1111111E+00  0.0000000E+00  0.3292181E-01
    1      -28.830145   1.000000
    2      -28.829623   1.000000
    3      -28.828856   1.000000
    4      -28.825725   1.000000
    5      -28.825583   1.000000
    6      -21.751837   1.000000
    7       -1.601376   1.000000
    8        0.222888   1.000000
    9        0.475199   1.000000
   10        6.008861   0.000000
   11        8.748589   0.000000
   12        9.855918   0.000000
   13       10.947036   0.000000
 
 -0.3333333E+00  0.1111111E+00  0.2775558E-16  0.3292181E-01
    1      -28.829967   1.000000
    2      -28.829562   1.000000
    3      -28.829158   1.000000
    4      -28.826585   1.000000
    5      -28.825873   1.000000
    6      -21.761174   1.000000
    7       -1.379058   1.000000
    8        0.229275   1.000000
    9        0.583496   1.000000
   10        5.937732   0.000000
   11        8.994815   0.000000
   12        9.915610   0.000000
   13        9.917919   0.000000
 
 -0.2222222E+00  0.1111111E+00  0.0000000E+00  0.3292181E-01
    1      -28.829859   1.000000
    2      -28.829659   1.000000
    3      -28.829460   1.000000
    4      -28.827930   1.000000
    5      -28.826708   1.000000
    6      -21.780072   1.000000
    7       -0.870493   1.000000
    8        0.353598   1.000000
    9        0.715092   1.000108
   10        5.499687   0.000000
   11        8.970401   0.000000
   12        9.509614   0.000000
   13       10.216720   0.000000
 
 -0.1111111E+00  0.1111111E+00  0.1445639E-16  0.1646091E-01
    1      -28.830306   1.000000
    2      -28.829905   1.000000
    3      -28.829790   1.000000
    4      -28.828467   1.000000
    5      -28.827718   1.000000
    6      -21.799569   1.000000
    7       -0.210361   1.000000
    8        0.580520   1.000000
    9        0.807390   1.033809
   10        4.570360   0.000000
   11        8.939218   0.000000
   12       10.113255   0.000000
   13       10.312744   0.000000
 
  0.2222222E+00  0.2222222E+00  0.2775558E-16  0.8230453E-02
    1      -28.831330   1.000000
    2      -28.829034   1.000000
    3      -28.828178   1.000000
    4      -28.828178   1.000000
    5      -28.827333   1.000000
    6      -21.783488   1.000000
    7       -0.575757   1.000000
    8        0.423414   1.000000
    9        0.423414   1.000000
   10        5.552241   0.000000
   11        8.114811   0.000000
   12        9.336440   0.000000
   13       11.084689   0.000000
 
  0.3333333E+00  0.2222222E+00  0.2775558E-16  0.3292181E-01
    1      -28.831257   1.000000
    2      -28.829252   1.000000
    3      -28.827881   1.000000
    4      -28.827174   1.000000
    5      -28.826294   1.000000
    6      -21.766841   1.000000
    7       -0.986609   1.000000
    8        0.227133   1.000000
    9        0.286251   1.000000
   10        6.186058   0.000000
   11        8.001525   0.000000
   12        8.969699   0.000000
   13       11.240951   0.000000
 
  0.4444444E+00  0.2222222E+00  0.5551115E-16  0.3292181E-01
    1      -28.830767   1.000000
    2      -28.828995   1.000000
    3      -28.828078   1.000000
    4      -28.826583   1.000000
    5      -28.825421   1.000000
    6      -21.751274   1.000000
    7       -1.296195   1.000000
    8       -0.062557   1.000000
    9        0.236238   1.000000
   10        6.555774   0.000000
   11        8.467370   0.000000
   12        8.893204   0.000000
   13       10.926725   0.000000
 
 -0.4444444E+00  0.2222222E+00  0.0000000E+00  0.3292181E-01
    1      -28.830426   1.000000
    2      -28.828252   1.000000
    3      -28.828199   1.000000
    4      -28.826517   1.000000
    5      -28.825524   1.000000
    6      -21.744116   1.000000
    7       -1.388655   1.000000
    8       -0.325743   1.000000
    9        0.291860   1.000000
   10        6.747703   0.000000
   11        8.396721   0.000000
   12       10.101081   0.000000
   13       10.606287   0.000000
 
 -0.3333333E+00  0.2222222E+00 -0.6938894E-17  0.3292181E-01
    1      -28.830134   1.000000
    2      -28.828295   1.000000
    3      -28.828221   1.000000
    4      -28.826596   1.000000
    5      -28.826279   1.000000
    6      -21.748754   1.000000
    7       -1.287044   1.000000
    8       -0.393924   1.000000
    9        0.432710   1.000000
   10        6.865503   0.000000
   11        8.410824   0.000000
   12        9.893705   0.000000
   13       10.442257   0.000000
 
 -0.2222222E+00  0.2222222E+00  0.1503499E-16  0.1646091E-01
    1      -28.829842   1.000000
    2      -28.829081   1.000000
    3      -28.828197   1.000000
    4      -28.828120   1.000000
    5      -28.826126   1.000000
    6      -21.762968   1.000000
    7       -1.101223   1.000000
    8       -0.136711   1.000000
    9        0.600941   1.000000
   10        6.467155   0.000000
   11        8.754618   0.000000
   12        9.011226   0.000000
   13       10.408443   0.000000
 
  0.3333333E+00  0.3333333E+00  0.0000000E+00  0.8230453E-02
    1      -28.831908   1.000000
    2      -28.829573   1.000000
    3      -28.826463   1.000000
    4      -28.826197   1.000000
    5      -28.826197   1.000000
    6      -21.755173   1.000000
    7       -1.161254   1.000000
    8        0.116994   1.000000
    9        0.116994   1.000000
   10        6.169970   0.000000
   11        7.491943   0.000000
   12        9.652814   0.000000
   13       12.079996   0.000000
 
  0.4444444E+00  0.3333333E+00  0.0000000E+00  0.3292181E-01
    1      -28.831731   1.000000
    2      -28.829636   1.000000
    3      -28.826549   1.000000
    4      -28.825637   1.000000
    5      -28.825278   1.000000
    6      -21.743439   1.000000
    7       -1.319397   1.000000
    8       -0.127680   1.000000
    9        0.041246   1.000000
   10        6.248101   0.000000
   11        7.567592   0.000000
   12       10.048149   0.000000
   13       12.109790   0.000000
 
 -0.4444444E+00  0.3333333E+00 -0.2775558E-16  0.3292181E-01
    1      -28.831065   1.000000
    2      -28.828978   1.000000
    3      -28.826757   1.000000
    4      -28.825899   1.000000
    5      -28.825304   1.000000
    6      -21.737123   1.000000
    7       -1.261914   1.000000
    8       -0.558474   1.000000
    9        0.086120   1.000000
   10        6.515896   0.000000
   11        8.316010   0.000000
   12       10.034836   0.000000
   13       11.704578   0.000000
 
 -0.3333333E+00  0.3333333E+00  0.2252976E-16  0.1646091E-01
    1      -28.830521   1.000000
    2      -28.827575   1.000000
    3      -28.827121   1.000000
    4      -28.826893   1.000000
    5      -28.826140   1.000000
    6      -21.739228   1.000000
    7       -1.001907   1.000000
    8       -0.931687   1.000000
    9        0.236065   1.000000
   10        6.867049   0.000000
   11        8.915140   0.000000
   12       10.266111   0.000000
   13       10.538096   0.000000
 
  0.4444444E+00  0.4444444E+00  0.5551115E-16  0.8230453E-02
    1      -28.832284   1.000000
    2      -28.829959   1.000000
    3      -28.825898   1.000000
    4      -28.824903   1.000000
    5      -28.824903   1.000000
    6      -21.736677   1.000000
    7       -1.450179   1.000000
    8       -0.067210   1.000000
    9       -0.067210   1.000000
   10        5.900244   0.000000
   11        7.179570   0.000000
   12       11.611934   0.000000
   13       12.977156   0.000000
 
 -0.4444444E+00  0.4444444E+00  0.3006997E-16  0.1646091E-01
    1      -28.831919   1.000000
    2      -28.829797   1.000000
    3      -28.826007   1.000000
    4      -28.825011   1.000000
    5      -28.824886   1.000000
    6      -21.734181   1.000000
    7       -1.420769   1.000000
    8       -0.267938   1.000000
    9       -0.050375   1.000000
   10        6.065593   0.000000
   11        7.419878   0.000000
   12       11.924299   0.000000
   13       11.978341   0.000000
 
  0.3333333E+00  0.2222222E+00  0.1111111E+00  0.3292181E-01
    1      -28.830601   1.000000
    2      -28.829349   1.000000
    3      -28.828434   1.000000
    4      -28.828260   1.000000
    5      -28.826661   1.000000
    6      -21.777678   1.000000
    7       -0.806197   1.000000
    8        0.250964   1.000000
    9        0.574111   1.000000
   10        5.802445   0.000000
   11        8.442100   0.000000
   12        9.116890   0.000000
   13       10.968706   0.000000
 
  0.4444444E+00  0.2222222E+00  0.1111111E+00  0.6584362E-01
    1      -28.830085   1.000000
    2      -28.829415   1.000000
    3      -28.828433   1.000000
    4      -28.827103   1.000000
    5      -28.825896   1.000000
    6      -21.759657   1.000000
    7       -1.194291   1.000000
    8       -0.024142   1.000000
    9        0.448801   1.000000
   10        6.503286   0.000000
   11        8.545487   0.000000
   12        8.880748   0.000000
   13       10.659821   0.000000
 
 -0.4444444E+00  0.2222222E+00  0.1111111E+00  0.6584362E-01
    1      -28.829991   1.000000
    2      -28.829253   1.000000
    3      -28.828143   1.000000
    4      -28.826455   1.000000
    5      -28.825589   1.000000
    6      -21.747897   1.000000
    7       -1.423741   1.000000
    8       -0.155726   1.000000
    9        0.339178   1.000000
   10        6.724069   0.000000
   11        8.228599   0.000000
   12       10.104784   0.000000
   13       10.480420   0.000000
 
  0.4444444E+00  0.3333333E+00  0.1111111E+00  0.3292181E-01
    1      -28.831090   1.000000
    2      -28.829393   1.000000
    3      -28.827531   1.000000
    4      -28.826230   1.000000
    5      -28.825775   1.000000
    6      -21.752666   1.000000
    7       -1.187651   1.000000
    8       -0.080645   1.000000
    9        0.180554   1.000000
   10        6.592092   0.000000
   11        7.951301   0.000000
   12        8.933107   0.000000
   13       11.798360   0.000000
 
 -0.4444444E+00  0.3333333E+00  0.1111111E+00  0.6584362E-01
    1      -28.830416   1.000000
    2      -28.829072   1.000000
    3      -28.827579   1.000000
    4      -28.826154   1.000000
    5      -28.825379   1.000000
    6      -21.741741   1.000000
    7       -1.250537   1.000000
    8       -0.412791   1.000000
    9        0.080461   1.000000
   10        6.968252   0.000000
   11        8.431884   0.000000
   12        8.900457   0.000000
   13       11.531190   0.000000
 
 -0.3333333E+00  0.3333333E+00  0.1111111E+00  0.6584362E-01
    1      -28.830024   1.000000
    2      -28.828401   1.000000
    3      -28.827319   1.000000
    4      -28.827074   1.000000
    5      -28.825482   1.000000
    6      -21.739266   1.000000
    7       -1.170234   1.000000
    8       -0.672475   1.000000
    9        0.124908   1.000000
   10        7.284317   0.000000
   11        8.296316   0.000000
   12        9.938575   0.000000
   13       10.474191   0.000000
 
 -0.2222222E+00  0.3333333E+00  0.1111111E+00  0.3292181E-01
    1      -28.829739   1.000000
    2      -28.829020   1.000000
    3      -28.827886   1.000000
    4      -28.826304   1.000000
    5      -28.826260   1.000000
    6      -21.746346   1.000000
    7       -1.177950   1.000000
    8       -0.515650   1.000000
    9        0.285584   1.000000
   10        7.392333   0.000000
   11        8.077285   0.000000
   12        9.096751   0.000000
   13       11.119904   0.000000
 
 -0.4444444E+00  0.4444444E+00  0.1111111E+00  0.3292181E-01
    1      -28.831412   1.000000
    2      -28.829620   1.000000
    3      -28.826419   1.000000
    4      -28.825548   1.000000
    5      -28.824907   1.000000
    6      -21.736327   1.000000
    7       -1.341305   1.000000
    8       -0.277960   1.000000
    9       -0.107418   1.000000
   10        6.387966   0.000000
   11        7.683059   0.000000
   12       10.365096   0.000000
   13       12.057954   0.000000
 
 -0.3333333E+00  0.4444444E+00  0.1111111E+00  0.3292181E-01
    1      -28.830557   1.000000
    2      -28.828996   1.000000
    3      -28.826642   1.000000
    4      -28.826595   1.000000
    5      -28.824930   1.000000
    6      -21.734703   1.000000
    7       -1.171626   1.000000
    8       -0.648550   1.000000
    9       -0.070794   1.000000
   10        6.840636   0.000000
   11        8.417214   0.000000
   12        9.931496   0.000000
   13       10.673937   0.000000
 
 -0.3333333E+00  0.4444444E+00  0.2222222E+00  0.3292181E-01
    1      -28.829191   1.000000
    2      -28.829171   1.000000
    3      -28.827834   1.000000
    4      -28.826724   1.000000
    5      -28.824922   1.000000
    6      -21.735544   1.000000
    7       -1.045513   1.000000
    8       -0.737046   1.000000
    9       -0.136149   1.000000
   10        7.612365   0.000000
   11        8.543255   0.000000
   12        8.988864   0.000000
   13       10.275744   0.000000
