<?xml version="1.0" encoding="ISO-8859-1"?>
<modeling>
 <generator>
  <i name="program" type="string">vasp </i>
  <i name="version" type="string">5.4.4.18Apr17-6-g9f103f2a35  </i>
  <i name="subversion" type="string">(build Nov 03 2018 10:20:43) complex            parallel </i>
  <i name="platform" type="string">LinuxIFC </i>
  <i name="date" type="string">2018 11 28 </i>
  <i name="time" type="string">17:22:30 </i>
 </generator>
 <incar>
  <i type="string" name="SYSTEM">   Og_FCC</i>
  <i type="string" name="PREC">accurate</i>
  <i type="string" name="ALGO">   Fast</i>
  <i type="logical" name="ADDGRID"> T  </i>
  <i type="logical" name="LSORBIT"> F  </i>
  <i type="int" name="ISPIN">     1</i>
  <i type="int" name="MAXMIX">    50</i>
  <i type="int" name="NELM">   100</i>
  <i type="int" name="NELMDL">    -5</i>
  <i type="int" name="NELMIN">     5</i>
  <i type="int" name="IBRION">    -1</i>
  <i type="int" name="NFREE">     5</i>
  <i name="EDIFF">      0.00000001</i>
  <i name="EDIFFG">      0.00000100</i>
  <i type="int" name="NSW">     1</i>
  <i type="int" name="ISIF">     7</i>
  <i type="int" name="ISYM">     2</i>
  <i name="SYMPREC">      0.00000010</i>
  <i name="ENCUT">    600.00000000</i>
  <i type="logical" name="LREAL"> F  </i>
  <i type="int" name="ISMEAR">     1</i>
  <i name="SIGMA">      0.05000000</i>
  <i name="KSPACING">      0.20000000</i>
  <i type="int" name="NWRITE">     2</i>
  <i type="logical" name="LWAVE"> F  </i>
  <i type="logical" name="LCHARG"> F  </i>
  <i type="logical" name="LVTOT"> F  </i>
  <i type="logical" name="GGA_COMPAT"> F  </i>
  <v type="int" name="KPOINT_BSE">    -1     0     0     0</v>
  <i type="int" name="NELM">   100</i>
  <i type="string" name="GGA"> PE</i>
 </incar>
 <structure name="primitive_cell" >
  <crystal>
   <varray name="basis" >
    <v>       4.49474106       0.00000000       0.00000000 </v>
    <v>       2.24737053       3.89255994      -0.00000000 </v>
    <v>       2.24737053       1.29751998       3.66994071 </v>
   </varray>
   <i name="volume">     64.20946234 </i>
   <varray name="rec_basis" >
    <v>       0.22248223      -0.12845017      -0.09082799 </v>
    <v>       0.00000000       0.25690035      -0.09082799 </v>
    <v>      -0.00000000       0.00000000       0.27248397 </v>
   </varray>
  </crystal>
  <varray name="positions" >
   <v>       0.00000000       0.00000000       0.00000000 </v>
  </varray>
 </structure>
 <varray name="primitive_index" >
  <v type="int" >        1 </v>
 </varray>
 <kpoints>
  <generation param="Gamma">
   <v type="int" name="divisions">       9        9        9 </v>
   <v name="usershift">      0.00000000       0.00000000       0.00000000 </v>
   <v name="genvec1">      0.11111111       0.00000000       0.00000000 </v>
   <v name="genvec2">      0.00000000       0.11111111       0.00000000 </v>
   <v name="genvec3">      0.00000000       0.00000000       0.11111111 </v>
   <v name="shift">      0.00000000       0.00000000       0.00000000 </v>
  </generation>
  <varray name="kpointlist" >
   <v>       0.00000000       0.00000000       0.00000000 </v>
   <v>       0.11111111      -0.00000000       0.00000000 </v>
   <v>       0.22222222       0.00000000       0.00000000 </v>
   <v>       0.33333333      -0.00000000      -0.00000000 </v>
   <v>       0.44444444       0.00000000       0.00000000 </v>
   <v>       0.11111111       0.11111111       0.00000000 </v>
   <v>       0.22222222       0.11111111       0.00000000 </v>
   <v>       0.33333333       0.11111111       0.00000000 </v>
   <v>       0.44444444       0.11111111       0.00000000 </v>
   <v>      -0.44444444       0.11111111       0.00000000 </v>
   <v>      -0.33333333       0.11111111       0.00000000 </v>
   <v>      -0.22222222       0.11111111       0.00000000 </v>
   <v>      -0.11111111       0.11111111       0.00000000 </v>
   <v>       0.22222222       0.22222222       0.00000000 </v>
   <v>       0.33333333       0.22222222       0.00000000 </v>
   <v>       0.44444444       0.22222222       0.00000000 </v>
   <v>      -0.44444444       0.22222222       0.00000000 </v>
   <v>      -0.33333333       0.22222222      -0.00000000 </v>
   <v>      -0.22222222       0.22222222       0.00000000 </v>
   <v>       0.33333333       0.33333333       0.00000000 </v>
   <v>       0.44444444       0.33333333       0.00000000 </v>
   <v>      -0.44444444       0.33333333      -0.00000000 </v>
   <v>      -0.33333333       0.33333333       0.00000000 </v>
   <v>       0.44444444       0.44444444       0.00000000 </v>
   <v>      -0.44444444       0.44444444       0.00000000 </v>
   <v>       0.33333333       0.22222222       0.11111111 </v>
   <v>       0.44444444       0.22222222       0.11111111 </v>
   <v>      -0.44444444       0.22222222       0.11111111 </v>
   <v>       0.44444444       0.33333333       0.11111111 </v>
   <v>      -0.44444444       0.33333333       0.11111111 </v>
   <v>      -0.33333333       0.33333333       0.11111111 </v>
   <v>      -0.22222222       0.33333333       0.11111111 </v>
   <v>      -0.44444444       0.44444444       0.11111111 </v>
   <v>      -0.33333333       0.44444444       0.11111111 </v>
   <v>      -0.33333333       0.44444444       0.22222222 </v>
  </varray>
  <varray name="weights" >
   <v>       0.00137174 </v>
   <v>       0.01097394 </v>
   <v>       0.01097394 </v>
   <v>       0.01097394 </v>
   <v>       0.01097394 </v>
   <v>       0.00823045 </v>
   <v>       0.03292181 </v>
   <v>       0.03292181 </v>
   <v>       0.03292181 </v>
   <v>       0.03292181 </v>
   <v>       0.03292181 </v>
   <v>       0.03292181 </v>
   <v>       0.01646091 </v>
   <v>       0.00823045 </v>
   <v>       0.03292181 </v>
   <v>       0.03292181 </v>
   <v>       0.03292181 </v>
   <v>       0.03292181 </v>
   <v>       0.01646091 </v>
   <v>       0.00823045 </v>
   <v>       0.03292181 </v>
   <v>       0.03292181 </v>
   <v>       0.01646091 </v>
   <v>       0.00823045 </v>
   <v>       0.01646091 </v>
   <v>       0.03292181 </v>
   <v>       0.06584362 </v>
   <v>       0.06584362 </v>
   <v>       0.03292181 </v>
   <v>       0.06584362 </v>
   <v>       0.06584362 </v>
   <v>       0.03292181 </v>
   <v>       0.03292181 </v>
   <v>       0.03292181 </v>
   <v>       0.03292181 </v>
  </varray>
 </kpoints>
 <parameters>
  <separator name="general" >
   <i type="string" name="SYSTEM">Og_FCC</i>
   <i type="logical" name="LCOMPAT"> F  </i>
  </separator>
  <separator name="electronic" >
   <i type="string" name="PREC">accura</i>
   <i name="ENMAX">    600.00000000</i>
   <i name="ENAUG">    361.02500000</i>
   <i name="EDIFF">      0.00000001</i>
   <i type="int" name="IALGO">    68</i>
   <i type="int" name="IWAVPR">    10</i>
   <i type="int" name="NBANDS">    13</i>
   <i name="NELECT">     18.00000000</i>
   <i type="int" name="TURBO">     0</i>
   <i type="int" name="IRESTART">     0</i>
   <i type="int" name="NREBOOT">     0</i>
   <i type="int" name="NMIN">     0</i>
   <i name="EREF">      0.00000000</i>
   <separator name="electronic smearing" >
    <i type="int" name="ISMEAR">     1</i>
    <i name="SIGMA">      0.05000000</i>
    <i name="KSPACING">      0.20000000</i>
    <i type="logical" name="KGAMMA"> T  </i>
   </separator>
   <separator name="electronic projectors" >
    <i type="logical" name="LREAL"> F  </i>
    <v name="ROPT">      0.00000000</v>
    <i type="int" name="LMAXPAW">  -100</i>
    <i type="int" name="LMAXMIX">     2</i>
    <i type="logical" name="NLSPLINE"> F  </i>
   </separator>
   <separator name="electronic startup" >
    <i type="int" name="ISTART">     0</i>
    <i type="int" name="ICHARG">     2</i>
    <i type="int" name="INIWAV">     1</i>
   </separator>
   <separator name="electronic spin" >
    <i type="int" name="ISPIN">     1</i>
    <i type="logical" name="LNONCOLLINEAR"> F  </i>
    <v name="MAGMOM">      1.00000000</v>
    <i name="NUPDOWN">     -1.00000000</i>
    <i type="logical" name="LSORBIT"> F  </i>
    <v name="SAXIS">      0.00000000      0.00000000      1.00000000</v>
    <i type="logical" name="LSPIRAL"> F  </i>
    <v name="QSPIRAL">      0.00000000      0.00000000      0.00000000</v>
    <i type="logical" name="LZEROZ"> F  </i>
   </separator>
   <separator name="electronic exchange-correlation" >
    <i type="logical" name="LASPH"> F  </i>
    <i type="logical" name="LMETAGGA"> F  </i>
   </separator>
   <separator name="electronic convergence" >
    <i type="int" name="NELM">   100</i>
    <i type="int" name="NELMDL">    -5</i>
    <i type="int" name="NELMIN">     5</i>
    <i name="ENINI">    600.00000000</i>
    <separator name="electronic convergence detail" >
     <i type="logical" name="LDIAG"> T  </i>
     <i type="logical" name="LSUBROT"> F  </i>
     <i name="WEIMIN">      0.00000000</i>
     <i name="EBREAK">      0.00000000</i>
     <i name="DEPER">      0.30000000</i>
     <i type="int" name="NRMM">     4</i>
     <i name="TIME">      0.40000000</i>
    </separator>
   </separator>
   <separator name="electronic mixer" >
    <i name="AMIX">      0.40000000</i>
    <i name="BMIX">      1.00000000</i>
    <i name="AMIN">      0.10000000</i>
    <i name="AMIX_MAG">      1.60000000</i>
    <i name="BMIX_MAG">      1.00000000</i>
    <separator name="electronic mixer details" >
     <i type="int" name="IMIX">     4</i>
     <i type="logical" name="MIXFIRST"> F  </i>
     <i type="int" name="MAXMIX">    50</i>
     <i name="WC">    100.00000000</i>
     <i type="int" name="INIMIX">     1</i>
     <i type="int" name="MIXPRE">     1</i>
     <i type="int" name="MREMOVE">     5</i>
    </separator>
   </separator>
   <separator name="electronic dipolcorrection" >
    <i type="logical" name="LDIPOL"> F  </i>
    <i type="logical" name="LMONO"> F  </i>
    <i type="int" name="IDIPOL">     0</i>
    <i name="EPSILON">      1.00000000</i>
    <v name="DIPOL">   -100.00000000   -100.00000000   -100.00000000</v>
    <i name="EFIELD">      0.00000000</i>
   </separator>
  </separator>
  <separator name="grids" >
   <i type="int" name="NGX">    36</i>
   <i type="int" name="NGY">    36</i>
   <i type="int" name="NGZ">    36</i>
   <i type="int" name="NGXF">    72</i>
   <i type="int" name="NGYF">    72</i>
   <i type="int" name="NGZF">    72</i>
   <i type="logical" name="ADDGRID"> T  </i>
  </separator>
  <separator name="ionic" >
   <i type="int" name="NSW">     1</i>
   <i type="int" name="IBRION">    -1</i>
   <i type="int" name="MDALGO">     0</i>
   <i type="int" name="ISIF">     7</i>
   <i name="PSTRESS">      0.00000000</i>
   <i name="EDIFFG">      0.00000100</i>
   <i type="int" name="NFREE">     5</i>
   <i name="POTIM">      0.50000000</i>
   <i name="SMASS">     -3.00000000</i>
   <i name="SCALEE">      1.00000000</i>
  </separator>
  <separator name="ionic md" >
   <i name="TEBEG">      0.00010000</i>
   <i name="TEEND">      0.00010000</i>
   <i type="int" name="NBLOCK">     1</i>
   <i type="int" name="KBLOCK">     1</i>
   <i type="int" name="NPACO">   256</i>
   <i name="APACO">     16.00000000</i>
  </separator>
  <separator name="symmetry" >
   <i type="int" name="ISYM">     2</i>
   <i name="SYMPREC">      0.00000010</i>
  </separator>
  <separator name="dos" >
   <i type="int" name="LORBIT">     0</i>
   <v name="RWIGS">     -1.00000000</v>
   <i type="int" name="NEDOS">   301</i>
   <i name="EMIN">     10.00000000</i>
   <i name="EMAX">    -10.00000000</i>
   <i name="EFERMI">      0.00000000</i>
  </separator>
  <separator name="writing" >
   <i type="int" name="NWRITE">     2</i>
   <i type="logical" name="LWAVE"> F  </i>
   <i type="logical" name="LDOWNSAMPLE"> F  </i>
   <i type="logical" name="LCHARG"> F  </i>
   <i type="logical" name="LPARD"> F  </i>
   <i type="logical" name="LVTOT"> F  </i>
   <i type="logical" name="LVHAR"> F  </i>
   <i type="logical" name="LELF"> F  </i>
   <i type="logical" name="LOPTICS"> F  </i>
   <v name="STM">      0.00000000      0.00000000      0.00000000      0.00000000      0.00000000      0.00000000      0.00000000</v>
  </separator>
  <separator name="performance" >
   <i type="int" name="NPAR">     1</i>
   <i type="int" name="NSIM">     4</i>
   <i type="int" name="NBLK">    -1</i>
   <i type="logical" name="LPLANE"> T  </i>
   <i type="logical" name="LSCALAPACK"> T  </i>
   <i type="logical" name="LSCAAWARE"> F  </i>
   <i type="logical" name="LSCALU"> F  </i>
   <i type="logical" name="LASYNC"> F  </i>
   <i type="logical" name="LORBITALREAL"> F  </i>
  </separator>
  <separator name="miscellaneous" >
   <i type="int" name="IDIOT">     3</i>
   <i type="int" name="ISPECIAL">     0</i>
   <i type="logical" name="LMUSIC"> F  </i>
   <v name="POMASS">      0.01000000</v>
   <v name="DARWINR">      0.00000000</v>
   <v name="DARWINV">      1.00000000</v>
   <i type="logical" name="LCORR"> T  </i>
  </separator>
  <i type="logical" name="GGA_COMPAT"> F  </i>
  <i type="logical" name="LBERRY"> F  </i>
  <i type="int" name="ICORELEVEL">     0</i>
  <i type="logical" name="LDAU"> F  </i>
  <i type="int" name="I_CONSTRAINED_M">     0</i>
  <separator name="electronic exchange-correlation" >
   <i type="string" name="GGA">PE</i>
   <i type="int" name="VOSKOWN">     0</i>
   <i type="logical" name="LHFCALC"> F  </i>
   <i type="string" name="PRECFOCK"></i>
   <i type="logical" name="LSYMGRAD"> F  </i>
   <i type="logical" name="LHFONE"> F  </i>
   <i type="logical" name="LRHFCALC"> F  </i>
   <i type="logical" name="LTHOMAS"> F  </i>
   <i type="logical" name="LMODELHF"> F  </i>
   <i name="ENCUT4O">     -1.00000000</i>
   <i type="int" name="EXXOEP">     0</i>
   <i type="int" name="FOURORBIT">     0</i>
   <i name="AEXX">      0.00000000</i>
   <i name="HFALPHA">      0.00000000</i>
   <i name="MCALPHA">      0.00000000</i>
   <i name="ALDAX">      1.00000000</i>
   <i name="AGGAX">      1.00000000</i>
   <i name="ALDAC">      1.00000000</i>
   <i name="AGGAC">      1.00000000</i>
   <i type="int" name="NKREDX">     1</i>
   <i type="int" name="NKREDY">     1</i>
   <i type="int" name="NKREDZ">     1</i>
   <i type="logical" name="SHIFTRED"> F  </i>
   <i type="logical" name="ODDONLY"> F  </i>
   <i type="logical" name="EVENONLY"> F  </i>
   <i type="int" name="LMAXFOCK">     0</i>
   <i type="int" name="NMAXFOCKAE">     0</i>
   <i type="logical" name="LFOCKAEDFT"> F  </i>
   <i name="HFSCREEN">      0.00000000</i>
   <i name="HFSCREENC">      0.00000000</i>
   <i type="int" name="NBANDSGWLOW">     0</i>
  </separator>
  <separator name="vdW DFT" >
   <i type="logical" name="LUSE_VDW"> F  </i>
   <i name="Zab_VDW">     -0.84910000</i>
   <i name="PARAM1">      0.12340000</i>
   <i name="PARAM2">      1.00000000</i>
   <i name="PARAM3">      0.00000000</i>
  </separator>
  <separator name="model GW" >
   <i type="int" name="MODEL_GW">     0</i>
   <i name="MODEL_EPS0">     38.52567741</i>
   <i name="MODEL_ALPHA">      1.00000000</i>
  </separator>
  <separator name="linear response parameters" >
   <i type="logical" name="LEPSILON"> F  </i>
   <i type="logical" name="LRPA"> F  </i>
   <i type="logical" name="LNABLA"> F  </i>
   <i type="logical" name="LVEL"> F  </i>
   <i type="int" name="KINTER">     0</i>
   <i name="CSHIFT">      0.10000000</i>
   <i name="OMEGAMAX">     -1.00000000</i>
   <i name="DEG_THRESHOLD">      0.00200000</i>
   <i name="RTIME">     -0.10000000</i>
   <i name="WPLASMAI">      0.00000000</i>
   <v name="DFIELD">      0.00000000      0.00000000      0.00000000</v>
   <v name="WPLASMA">      0.00000000      0.00000000      0.00000000      0.00000000      0.00000000      0.00000000      0.00000000      0.00000000      0.00000000</v>
  </separator>
  <separator name="orbital magnetization" >
   <i type="logical" name="NUCIND"> F  </i>
   <v name="MAGPOS">      0.00000000      0.00000000      0.00000000</v>
   <i type="logical" name="LNICSALL"> T  </i>
   <i type="logical" name="ORBITALMAG"> F  </i>
   <i type="logical" name="LMAGBLOCH"> F  </i>
   <i type="logical" name="LCHIMAG"> F  </i>
   <i type="logical" name="LGAUGE"> T  </i>
   <i type="int" name="MAGATOM">     0</i>
   <v name="MAGDIPOL">      0.00000000      0.00000000      0.00000000</v>
   <v name="AVECCONST">      0.00000000      0.00000000      0.00000000</v>
  </separator>
  <separator name="response functions" >
   <i type="logical" name="LADDER"> F  </i>
   <i type="logical" name="LRPAFORCE"> F  </i>
   <i type="logical" name="LFXC"> F  </i>
   <i type="logical" name="LHARTREE"> T  </i>
   <i type="int" name="IBSE">     0</i>
   <v type="int" name="KPOINT">    -1     0     0     0</v>
   <i type="logical" name="LTCTE"> F  </i>
   <i type="logical" name="LTETE"> F  </i>
   <i type="logical" name="LTRIPLET"> F  </i>
   <i type="logical" name="LFXCEPS"> F  </i>
   <i type="logical" name="LFXHEG"> F  </i>
   <i type="int" name="NATURALO">     2</i>
   <i type="logical" name="L2ORDER"> F  </i>
   <i type="logical" name="LMP2LT"> F  </i>
   <i type="logical" name="LUSEW"> F  </i>
   <i name="ENCUTGW">     -2.00000000</i>
   <i name="ENCUTGWSOFT">     -2.00000000</i>
   <i name="ENCUTLF">     -1.00000000</i>
   <i type="int" name="LMAXMP2">    -1</i>
   <i name="SCISSOR">      0.00000000</i>
   <i type="int" name="NOMEGA">     0</i>
   <i type="int" name="NOMEGAR">     0</i>
   <i type="int" name="NBANDSGW">    -1</i>
   <i type="int" name="NBANDSO">    -1</i>
   <i type="int" name="NBANDSV">    -1</i>
   <i type="int" name="NELM">   100</i>
   <i type="int" name="NELMHF">     1</i>
   <i type="int" name="DIM">     3</i>
   <i type="int" name="ANTIRES">     0</i>
   <i name="OMEGAMAX">    -30.00000000</i>
   <i name="OMEGAMIN">    -30.00000000</i>
   <i name="OMEGATL">   -200.00000000</i>
   <i type="int" name="OMEGAGRID">   140</i>
   <i name="CSHIFT">     -0.10000000</i>
   <i type="logical" name="SELFENERGY"> F  </i>
   <i type="logical" name="LSPECTRAL"> F  </i>
   <i type="logical" name="LSPECTRALGW"> F  </i>
   <i type="logical" name="LSINGLES"> F  </i>
   <i type="logical" name="LFERMIGW"> F  </i>
   <i type="logical" name="ODDONLYGW"> F  </i>
   <i type="logical" name="EVENONLYGW"> F  </i>
   <i type="int" name="NKREDLFX">     1</i>
   <i type="int" name="NKREDLFY">     1</i>
   <i type="int" name="NKREDLFZ">     1</i>
   <i type="int" name="MAXMEM">  2800</i>
   <i type="int" name="TELESCOPE">     0</i>
   <i type="int" name="TAUPAR">     1</i>
   <i type="int" name="OMEGAPAR">    -1</i>
   <i name="LAMBDA">      1.00000000</i>
  </separator>
  <separator name="External order field" >
   <i name="OFIELD_KAPPA">      0.00000000</i>
   <v name="OFIELD_K">      0.00000000      0.00000000      0.00000000</v>
   <i name="OFIELD_Q6_NEAR">      0.00000000</i>
   <i name="OFIELD_Q6_FAR">      0.00000000</i>
   <i name="OFIELD_A">      0.00000000</i>
  </separator>
 </parameters>
 <atominfo>
  <atoms>       1 </atoms>
  <types>       1 </types>
  <array name="atoms" >
   <dimension dim="1">ion</dimension>
   <field type="string">element</field>
   <field type="int">atomtype</field>
   <set>
    <rc><c>Og</c><c>   1</c></rc>
   </set>
  </array>
  <array name="atomtypes" >
   <dimension dim="1">type</dimension>
   <field type="int">atomspertype</field>
   <field type="string">element</field>
   <field>mass</field>
   <field>valence</field>
   <field type="string">pseudopotential</field>
   <set>
    <rc><c>   1</c><c>Og</c><c>      0.01000000</c><c>     18.00000000</c><c>  PAW Og, JanMewes Oct 18               </c></rc>
   </set>
  </array>
 </atominfo>
 <structure name="initialpos" >
  <crystal>
   <varray name="basis" >
    <v>       4.49474106       0.00000000       0.00000000 </v>
    <v>       2.24737053       3.89255994      -0.00000000 </v>
    <v>       2.24737053       1.29751998       3.66994071 </v>
   </varray>
   <i name="volume">     64.20946234 </i>
   <varray name="rec_basis" >
    <v>       0.22248223      -0.12845017      -0.09082799 </v>
    <v>       0.00000000       0.25690035      -0.09082799 </v>
    <v>      -0.00000000       0.00000000       0.27248397 </v>
   </varray>
  </crystal>
  <varray name="positions" >
   <v>       0.00000000       0.00000000       0.00000000 </v>
  </varray>
  <varray name="velocities" >
   <v>       0.00000000       0.00000000       0.00000000 </v>
  </varray>
 </structure>
 <calculation>
  <scstep>
   <time name="dav">    0.59    0.59</time>
   <time name="total">    1.06    1.06</time>
   <energy>
    <i name="alphaZ">     59.41891523 </i>
    <i name="ewald">  -1682.58761579 </i>
    <i name="hartreedc">   -699.17232236 </i>
    <i name="XCdc">    -69.40837319 </i>
    <i name="pawpsdc">   2268.42939301 </i>
    <i name="pawaedc">  -2184.22833953 </i>
    <i name="eentropy">     -0.00037163 </i>
    <i name="bandstr">    -37.63299039 </i>
    <i name="atom">   2640.52872706 </i>
    <i name="e_fr_energy">    295.34702240 </i>
    <i name="e_wo_entrp">    295.34739403 </i>
    <i name="e_0_energy">    295.34714628 </i>
   </energy>
  </scstep>
  <scstep>
   <time name="dav">    0.62    0.63</time>
   <time name="total">    0.63    0.63</time>
   <energy>
    <i name="e_fr_energy">     10.34289814 </i>
    <i name="e_wo_entrp">     10.34258970 </i>
    <i name="e_0_energy">     10.34279533 </i>
   </energy>
  </scstep>
  <scstep>
   <time name="dav">    0.49    0.49</time>
   <time name="total">    0.49    0.49</time>
   <energy>
    <i name="e_fr_energy">      0.22639047 </i>
    <i name="e_wo_entrp">      0.22620770 </i>
    <i name="e_0_energy">      0.22632955 </i>
   </energy>
  </scstep>
  <scstep>
   <time name="dav">    0.55    0.55</time>
   <time name="total">    0.56    0.56</time>
   <energy>
    <i name="e_fr_energy">      0.04199808 </i>
    <i name="e_wo_entrp">      0.04181815 </i>
    <i name="e_0_energy">      0.04193811 </i>
   </energy>
  </scstep>
  <scstep>
   <time name="dav">    0.52    0.52</time>
   <time name="total">    0.76    0.76</time>
   <energy>
    <i name="e_fr_energy">      0.03398979 </i>
    <i name="e_wo_entrp">      0.03380921 </i>
    <i name="e_0_energy">      0.03392960 </i>
   </energy>
  </scstep>
  <scstep>
   <time name="diag">    0.12    0.12</time>
   <time name="diis">    0.70    0.70</time>
   <time name="orth">    0.00    0.00</time>
   <time name="total">    1.54    1.54</time>
   <energy>
    <i name="e_fr_energy">      0.03326881 </i>
    <i name="e_wo_entrp">      0.03308823 </i>
    <i name="e_0_energy">      0.03320862 </i>
   </energy>
  </scstep>
  <scstep>
   <time name="diag">    0.12    0.12</time>
   <time name="diis">    0.68    0.68</time>
   <time name="orth">    0.00    0.00</time>
   <time name="total">    1.57    1.57</time>
   <energy>
    <i name="e_fr_energy">      0.03291794 </i>
    <i name="e_wo_entrp">      0.03273730 </i>
    <i name="e_0_energy">      0.03285773 </i>
   </energy>
  </scstep>
  <scstep>
   <time name="diag">    0.10    0.10</time>
   <time name="diis">    0.57    0.57</time>
   <time name="orth">    0.00    0.00</time>
   <time name="total">    1.19    1.19</time>
   <energy>
    <i name="e_fr_energy">      0.03289392 </i>
    <i name="e_wo_entrp">      0.03271325 </i>
    <i name="e_0_energy">      0.03283370 </i>
   </energy>
  </scstep>
  <scstep>
   <time name="diag">    0.10    0.10</time>
   <time name="diis">    0.62    0.62</time>
   <time name="orth">    0.00    0.00</time>
   <time name="total">    1.31    1.31</time>
   <energy>
    <i name="e_fr_energy">      0.03288471 </i>
    <i name="e_wo_entrp">      0.03270404 </i>
    <i name="e_0_energy">      0.03282449 </i>
   </energy>
  </scstep>
  <scstep>
   <time name="diag">    0.12    0.12</time>
   <time name="diis">    0.73    0.73</time>
   <time name="orth">    0.00    0.00</time>
   <time name="total">    1.51    1.51</time>
   <energy>
    <i name="e_fr_energy">      0.03288384 </i>
    <i name="e_wo_entrp">      0.03270317 </i>
    <i name="e_0_energy">      0.03282362 </i>
   </energy>
  </scstep>
  <scstep>
   <time name="diag">    0.09    0.09</time>
   <time name="diis">    0.74    0.74</time>
   <time name="orth">    0.00    0.00</time>
   <time name="total">    1.46    1.46</time>
   <energy>
    <i name="e_fr_energy">      0.03288361 </i>
    <i name="e_wo_entrp">      0.03270294 </i>
    <i name="e_0_energy">      0.03282339 </i>
   </energy>
  </scstep>
  <scstep>
   <time name="diag">    0.10    0.10</time>
   <time name="diis">    0.45    0.45</time>
   <time name="orth">    0.00    0.00</time>
   <time name="total">    1.08    1.08</time>
   <energy>
    <i name="e_fr_energy">      0.03288348 </i>
    <i name="e_wo_entrp">      0.03270281 </i>
    <i name="e_0_energy">      0.03282326 </i>
   </energy>
  </scstep>
  <scstep>
   <time name="diag">    0.08    0.08</time>
   <time name="diis">    0.32    0.32</time>
   <time name="orth">    0.00    0.00</time>
   <time name="total">    0.86    0.87</time>
   <energy>
    <i name="e_fr_energy">      0.03288353 </i>
    <i name="e_wo_entrp">      0.03270286 </i>
    <i name="e_0_energy">      0.03282331 </i>
   </energy>
  </scstep>
  <scstep>
   <time name="diag">    0.09    0.09</time>
   <time name="diis">    0.36    0.36</time>
   <time name="orth">    0.00    0.00</time>
   <time name="total">    0.94    0.94</time>
   <energy>
    <i name="e_fr_energy">      0.03288355 </i>
    <i name="e_wo_entrp">      0.03270287 </i>
    <i name="e_0_energy">      0.03282332 </i>
   </energy>
  </scstep>
  <scstep>
   <time name="diag">    0.12    0.12</time>
   <time name="diis">    0.48    0.48</time>
   <time name="orth">    0.00    0.00</time>
   <time name="total">    0.92    0.92</time>
   <energy>
    <i name="alphaZ">     59.41891523 </i>
    <i name="ewald">  -1682.58761579 </i>
    <i name="hartreedc">   -698.45665534 </i>
    <i name="XCdc">    -69.45235454 </i>
    <i name="pawpsdc">   2265.71819623 </i>
    <i name="pawaedc">  -2181.49426706 </i>
    <i name="eentropy">      0.00018067 </i>
    <i name="bandstr">   -333.64224291 </i>
    <i name="atom">   2640.52872706 </i>
    <i name="e_fr_energy">      0.03288355 </i>
    <i name="e_wo_entrp">      0.03270288 </i>
    <i name="e_0_energy">      0.03282333 </i>
   </energy>
  </scstep>
  <structure>
   <crystal>
    <varray name="basis" >
     <v>       4.49474106       0.00000000       0.00000000 </v>
     <v>       2.24737053       3.89255994      -0.00000000 </v>
     <v>       2.24737053       1.29751998       3.66994071 </v>
    </varray>
    <i name="volume">     64.20946234 </i>
    <varray name="rec_basis" >
     <v>       0.22248223      -0.12845017      -0.09082799 </v>
     <v>       0.00000000       0.25690035      -0.09082799 </v>
     <v>      -0.00000000       0.00000000       0.27248397 </v>
    </varray>
   </crystal>
   <varray name="positions" >
    <v>       0.00000000       0.00000000       0.00000000 </v>
   </varray>
  </structure>
  <varray name="forces" >
   <v>      -0.00000000       0.00000000      -0.00000000 </v>
  </varray>
  <varray name="stress" >
   <v>      -0.90943430       0.00000000       0.00000000 </v>
   <v>       0.00000000      -0.90943430      -0.00000000 </v>
   <v>      -0.00000000       0.00000000      -0.90943430 </v>
  </varray>
  <energy>
   <i name="e_fr_energy">     -0.36194376 </i>
   <i name="e_wo_entrp">     -0.36200398 </i>
   <i name="e_0_energy">      0.00018067 </i>
  </energy>
  <time name="totalsc">   23.92   23.92</time>
  <eigenvalues>
   <array>
    <dimension dim="1">band</dimension>
    <dimension dim="2">kpoint</dimension>
    <dimension dim="3">spin</dimension>
    <field>eigene</field>
    <field>occ</field>
    <set>
     <set comment="spin 1">
      <set comment="kpoint 1">
       <r>  -28.8306    1.0000 </r>
       <r>  -28.8306    1.0000 </r>
       <r>  -28.8306    1.0000 </r>
       <r>  -28.8284    1.0000 </r>
       <r>  -28.8284    1.0000 </r>
       <r>  -21.8179    1.0000 </r>
       <r>    0.8515    0.7014 </r>
       <r>    0.8515    0.7014 </r>
       <r>    0.8515    0.7014 </r>
       <r>    3.1473    0.0000 </r>
       <r>   10.0390    0.0000 </r>
       <r>   10.0390    0.0000 </r>
       <r>   10.0390    0.0000 </r>
      </set>
      <set comment="kpoint 2">
       <r>  -28.8304    1.0000 </r>
       <r>  -28.8303    1.0000 </r>
       <r>  -28.8303    1.0000 </r>
       <r>  -28.8283    1.0000 </r>
       <r>  -28.8283    1.0000 </r>
       <r>  -21.8106    1.0000 </r>
       <r>    0.2864    1.0000 </r>
       <r>    0.8108    1.0302 </r>
       <r>    0.8108    1.0302 </r>
       <r>    3.8114    0.0000 </r>
       <r>    9.3294    0.0000 </r>
       <r>   10.1597    0.0000 </r>
       <r>   10.1597    0.0000 </r>
      </set>
      <set comment="kpoint 3">
       <r>  -28.8300    1.0000 </r>
       <r>  -28.8299    1.0000 </r>
       <r>  -28.8299    1.0000 </r>
       <r>  -28.8277    1.0000 </r>
       <r>  -28.8277    1.0000 </r>
       <r>  -21.7921    1.0000 </r>
       <r>   -0.5936    1.0000 </r>
       <r>    0.7113    1.0001 </r>
       <r>    0.7113    1.0001 </r>
       <r>    4.8379    0.0000 </r>
       <r>    9.0882    0.0000 </r>
       <r>   10.1904    0.0000 </r>
       <r>   10.1904    0.0000 </r>
      </set>
      <set comment="kpoint 4">
       <r>  -28.8300    1.0000 </r>
       <r>  -28.8300    1.0000 </r>
       <r>  -28.8295    1.0000 </r>
       <r>  -28.8265    1.0000 </r>
       <r>  -28.8265    1.0000 </r>
       <r>  -21.7707    1.0000 </r>
       <r>   -1.2775    1.0000 </r>
       <r>    0.6033    1.0000 </r>
       <r>    0.6033    1.0000 </r>
       <r>    5.4022    0.0000 </r>
       <r>    9.7673    0.0000 </r>
       <r>    9.8734    0.0000 </r>
       <r>    9.8734    0.0000 </r>
      </set>
      <set comment="kpoint 5">
       <r>  -28.8301    1.0000 </r>
       <r>  -28.8301    1.0000 </r>
       <r>  -28.8292    1.0000 </r>
       <r>  -28.8256    1.0000 </r>
       <r>  -28.8256    1.0000 </r>
       <r>  -21.7567    1.0000 </r>
       <r>   -1.6403    1.0000 </r>
       <r>    0.5356    1.0000 </r>
       <r>    0.5356    1.0000 </r>
       <r>    5.5303    0.0000 </r>
       <r>    9.6453    0.0000 </r>
       <r>    9.6453    0.0000 </r>
       <r>   10.0719    0.0000 </r>
      </set>
      <set comment="kpoint 6">
       <r>  -28.8308    1.0000 </r>
       <r>  -28.8299    1.0000 </r>
       <r>  -28.8299    1.0000 </r>
       <r>  -28.8286    1.0000 </r>
       <r>  -28.8281    1.0000 </r>
       <r>  -21.8082    1.0000 </r>
       <r>    0.2560    1.0000 </r>
       <r>    0.7233    1.0003 </r>
       <r>    0.7233    1.0003 </r>
       <r>    4.0387    0.0000 </r>
       <r>    9.0391    0.0000 </r>
       <r>   10.3288    0.0000 </r>
       <r>   10.3309    0.0000 </r>
      </set>
      <set comment="kpoint 7">
       <r>  -28.8307    1.0000 </r>
       <r>  -28.8294    1.0000 </r>
       <r>  -28.8294    1.0000 </r>
       <r>  -28.8284    1.0000 </r>
       <r>  -28.8275    1.0000 </r>
       <r>  -21.7934    1.0000 </r>
       <r>   -0.4039    1.0000 </r>
       <r>    0.5919    1.0000 </r>
       <r>    0.6284    1.0000 </r>
       <r>    4.9527    0.0000 </r>
       <r>    8.6660    0.0000 </r>
       <r>    9.8037    0.0000 </r>
       <r>   10.5510    0.0000 </r>
      </set>
      <set comment="kpoint 8">
       <r>  -28.8303    1.0000 </r>
       <r>  -28.8293    1.0000 </r>
       <r>  -28.8293    1.0000 </r>
       <r>  -28.8274    1.0000 </r>
       <r>  -28.8264    1.0000 </r>
       <r>  -21.7730    1.0000 </r>
       <r>   -1.0711    1.0000 </r>
       <r>    0.4803    1.0000 </r>
       <r>    0.4828    1.0000 </r>
       <r>    5.7099    0.0000 </r>
       <r>    8.9997    0.0000 </r>
       <r>    9.1659    0.0000 </r>
       <r>   10.3623    0.0000 </r>
      </set>
      <set comment="kpoint 9">
       <r>  -28.8302    1.0000 </r>
       <r>  -28.8295    1.0000 </r>
       <r>  -28.8290    1.0000 </r>
       <r>  -28.8263    1.0000 </r>
       <r>  -28.8255    1.0000 </r>
       <r>  -21.7565    1.0000 </r>
       <r>   -1.4949    1.0000 </r>
       <r>    0.3228    1.0000 </r>
       <r>    0.4356    1.0000 </r>
       <r>    5.9687    0.0000 </r>
       <r>    8.8031    0.0000 </r>
       <r>   10.0317    0.0000 </r>
       <r>   10.1849    0.0000 </r>
      </set>
      <set comment="kpoint 10">
       <r>  -28.8301    1.0000 </r>
       <r>  -28.8296    1.0000 </r>
       <r>  -28.8289    1.0000 </r>
       <r>  -28.8257    1.0000 </r>
       <r>  -28.8256    1.0000 </r>
       <r>  -21.7518    1.0000 </r>
       <r>   -1.6014    1.0000 </r>
       <r>    0.2229    1.0000 </r>
       <r>    0.4752    1.0000 </r>
       <r>    6.0089    0.0000 </r>
       <r>    8.7486    0.0000 </r>
       <r>    9.8559    0.0000 </r>
       <r>   10.9470    0.0000 </r>
      </set>
      <set comment="kpoint 11">
       <r>  -28.8300    1.0000 </r>
       <r>  -28.8296    1.0000 </r>
       <r>  -28.8292    1.0000 </r>
       <r>  -28.8266    1.0000 </r>
       <r>  -28.8259    1.0000 </r>
       <r>  -21.7612    1.0000 </r>
       <r>   -1.3791    1.0000 </r>
       <r>    0.2293    1.0000 </r>
       <r>    0.5835    1.0000 </r>
       <r>    5.9377    0.0000 </r>
       <r>    8.9948    0.0000 </r>
       <r>    9.9156    0.0000 </r>
       <r>    9.9179    0.0000 </r>
      </set>
      <set comment="kpoint 12">
       <r>  -28.8299    1.0000 </r>
       <r>  -28.8297    1.0000 </r>
       <r>  -28.8295    1.0000 </r>
       <r>  -28.8279    1.0000 </r>
       <r>  -28.8267    1.0000 </r>
       <r>  -21.7801    1.0000 </r>
       <r>   -0.8705    1.0000 </r>
       <r>    0.3536    1.0000 </r>
       <r>    0.7151    1.0001 </r>
       <r>    5.4997    0.0000 </r>
       <r>    8.9704    0.0000 </r>
       <r>    9.5096    0.0000 </r>
       <r>   10.2167    0.0000 </r>
      </set>
      <set comment="kpoint 13">
       <r>  -28.8303    1.0000 </r>
       <r>  -28.8299    1.0000 </r>
       <r>  -28.8298    1.0000 </r>
       <r>  -28.8285    1.0000 </r>
       <r>  -28.8277    1.0000 </r>
       <r>  -21.7996    1.0000 </r>
       <r>   -0.2104    1.0000 </r>
       <r>    0.5805    1.0000 </r>
       <r>    0.8074    1.0338 </r>
       <r>    4.5704    0.0000 </r>
       <r>    8.9392    0.0000 </r>
       <r>   10.1133    0.0000 </r>
       <r>   10.3127    0.0000 </r>
      </set>
      <set comment="kpoint 14">
       <r>  -28.8313    1.0000 </r>
       <r>  -28.8290    1.0000 </r>
       <r>  -28.8282    1.0000 </r>
       <r>  -28.8282    1.0000 </r>
       <r>  -28.8273    1.0000 </r>
       <r>  -21.7835    1.0000 </r>
       <r>   -0.5758    1.0000 </r>
       <r>    0.4234    1.0000 </r>
       <r>    0.4234    1.0000 </r>
       <r>    5.5522    0.0000 </r>
       <r>    8.1148    0.0000 </r>
       <r>    9.3364    0.0000 </r>
       <r>   11.0847    0.0000 </r>
      </set>
      <set comment="kpoint 15">
       <r>  -28.8313    1.0000 </r>
       <r>  -28.8293    1.0000 </r>
       <r>  -28.8279    1.0000 </r>
       <r>  -28.8272    1.0000 </r>
       <r>  -28.8263    1.0000 </r>
       <r>  -21.7668    1.0000 </r>
       <r>   -0.9866    1.0000 </r>
       <r>    0.2271    1.0000 </r>
       <r>    0.2863    1.0000 </r>
       <r>    6.1861    0.0000 </r>
       <r>    8.0015    0.0000 </r>
       <r>    8.9697    0.0000 </r>
       <r>   11.2410    0.0000 </r>
      </set>
      <set comment="kpoint 16">
       <r>  -28.8308    1.0000 </r>
       <r>  -28.8290    1.0000 </r>
       <r>  -28.8281    1.0000 </r>
       <r>  -28.8266    1.0000 </r>
       <r>  -28.8254    1.0000 </r>
       <r>  -21.7513    1.0000 </r>
       <r>   -1.2962    1.0000 </r>
       <r>   -0.0626    1.0000 </r>
       <r>    0.2362    1.0000 </r>
       <r>    6.5558    0.0000 </r>
       <r>    8.4674    0.0000 </r>
       <r>    8.8932    0.0000 </r>
       <r>   10.9267    0.0000 </r>
      </set>
      <set comment="kpoint 17">
       <r>  -28.8304    1.0000 </r>
       <r>  -28.8283    1.0000 </r>
       <r>  -28.8282    1.0000 </r>
       <r>  -28.8265    1.0000 </r>
       <r>  -28.8255    1.0000 </r>
       <r>  -21.7441    1.0000 </r>
       <r>   -1.3887    1.0000 </r>
       <r>   -0.3257    1.0000 </r>
       <r>    0.2919    1.0000 </r>
       <r>    6.7477    0.0000 </r>
       <r>    8.3967    0.0000 </r>
       <r>   10.1011    0.0000 </r>
       <r>   10.6063    0.0000 </r>
      </set>
      <set comment="kpoint 18">
       <r>  -28.8301    1.0000 </r>
       <r>  -28.8283    1.0000 </r>
       <r>  -28.8282    1.0000 </r>
       <r>  -28.8266    1.0000 </r>
       <r>  -28.8263    1.0000 </r>
       <r>  -21.7488    1.0000 </r>
       <r>   -1.2870    1.0000 </r>
       <r>   -0.3939    1.0000 </r>
       <r>    0.4327    1.0000 </r>
       <r>    6.8655    0.0000 </r>
       <r>    8.4108    0.0000 </r>
       <r>    9.8937    0.0000 </r>
       <r>   10.4423    0.0000 </r>
      </set>
      <set comment="kpoint 19">
       <r>  -28.8298    1.0000 </r>
       <r>  -28.8291    1.0000 </r>
       <r>  -28.8282    1.0000 </r>
       <r>  -28.8281    1.0000 </r>
       <r>  -28.8261    1.0000 </r>
       <r>  -21.7630    1.0000 </r>
       <r>   -1.1012    1.0000 </r>
       <r>   -0.1367    1.0000 </r>
       <r>    0.6009    1.0000 </r>
       <r>    6.4672    0.0000 </r>
       <r>    8.7546    0.0000 </r>
       <r>    9.0112    0.0000 </r>
       <r>   10.4084    0.0000 </r>
      </set>
      <set comment="kpoint 20">
       <r>  -28.8319    1.0000 </r>
       <r>  -28.8296    1.0000 </r>
       <r>  -28.8265    1.0000 </r>
       <r>  -28.8262    1.0000 </r>
       <r>  -28.8262    1.0000 </r>
       <r>  -21.7552    1.0000 </r>
       <r>   -1.1613    1.0000 </r>
       <r>    0.1170    1.0000 </r>
       <r>    0.1170    1.0000 </r>
       <r>    6.1700    0.0000 </r>
       <r>    7.4919    0.0000 </r>
       <r>    9.6528    0.0000 </r>
       <r>   12.0800    0.0000 </r>
      </set>
      <set comment="kpoint 21">
       <r>  -28.8317    1.0000 </r>
       <r>  -28.8296    1.0000 </r>
       <r>  -28.8265    1.0000 </r>
       <r>  -28.8256    1.0000 </r>
       <r>  -28.8253    1.0000 </r>
       <r>  -21.7434    1.0000 </r>
       <r>   -1.3194    1.0000 </r>
       <r>   -0.1277    1.0000 </r>
       <r>    0.0412    1.0000 </r>
       <r>    6.2481    0.0000 </r>
       <r>    7.5676    0.0000 </r>
       <r>   10.0481    0.0000 </r>
       <r>   12.1098    0.0000 </r>
      </set>
      <set comment="kpoint 22">
       <r>  -28.8311    1.0000 </r>
       <r>  -28.8290    1.0000 </r>
       <r>  -28.8268    1.0000 </r>
       <r>  -28.8259    1.0000 </r>
       <r>  -28.8253    1.0000 </r>
       <r>  -21.7371    1.0000 </r>
       <r>   -1.2619    1.0000 </r>
       <r>   -0.5585    1.0000 </r>
       <r>    0.0861    1.0000 </r>
       <r>    6.5159    0.0000 </r>
       <r>    8.3160    0.0000 </r>
       <r>   10.0348    0.0000 </r>
       <r>   11.7046    0.0000 </r>
      </set>
      <set comment="kpoint 23">
       <r>  -28.8305    1.0000 </r>
       <r>  -28.8276    1.0000 </r>
       <r>  -28.8271    1.0000 </r>
       <r>  -28.8269    1.0000 </r>
       <r>  -28.8261    1.0000 </r>
       <r>  -21.7392    1.0000 </r>
       <r>   -1.0019    1.0000 </r>
       <r>   -0.9317    1.0000 </r>
       <r>    0.2361    1.0000 </r>
       <r>    6.8670    0.0000 </r>
       <r>    8.9151    0.0000 </r>
       <r>   10.2661    0.0000 </r>
       <r>   10.5381    0.0000 </r>
      </set>
      <set comment="kpoint 24">
       <r>  -28.8323    1.0000 </r>
       <r>  -28.8300    1.0000 </r>
       <r>  -28.8259    1.0000 </r>
       <r>  -28.8249    1.0000 </r>
       <r>  -28.8249    1.0000 </r>
       <r>  -21.7367    1.0000 </r>
       <r>   -1.4502    1.0000 </r>
       <r>   -0.0672    1.0000 </r>
       <r>   -0.0672    1.0000 </r>
       <r>    5.9002    0.0000 </r>
       <r>    7.1796    0.0000 </r>
       <r>   11.6119    0.0000 </r>
       <r>   12.9772    0.0000 </r>
      </set>
      <set comment="kpoint 25">
       <r>  -28.8319    1.0000 </r>
       <r>  -28.8298    1.0000 </r>
       <r>  -28.8260    1.0000 </r>
       <r>  -28.8250    1.0000 </r>
       <r>  -28.8249    1.0000 </r>
       <r>  -21.7342    1.0000 </r>
       <r>   -1.4208    1.0000 </r>
       <r>   -0.2679    1.0000 </r>
       <r>   -0.0504    1.0000 </r>
       <r>    6.0656    0.0000 </r>
       <r>    7.4199    0.0000 </r>
       <r>   11.9243    0.0000 </r>
       <r>   11.9783    0.0000 </r>
      </set>
      <set comment="kpoint 26">
       <r>  -28.8306    1.0000 </r>
       <r>  -28.8293    1.0000 </r>
       <r>  -28.8284    1.0000 </r>
       <r>  -28.8283    1.0000 </r>
       <r>  -28.8267    1.0000 </r>
       <r>  -21.7777    1.0000 </r>
       <r>   -0.8062    1.0000 </r>
       <r>    0.2510    1.0000 </r>
       <r>    0.5741    1.0000 </r>
       <r>    5.8024    0.0000 </r>
       <r>    8.4421    0.0000 </r>
       <r>    9.1169    0.0000 </r>
       <r>   10.9687    0.0000 </r>
      </set>
      <set comment="kpoint 27">
       <r>  -28.8301    1.0000 </r>
       <r>  -28.8294    1.0000 </r>
       <r>  -28.8284    1.0000 </r>
       <r>  -28.8271    1.0000 </r>
       <r>  -28.8259    1.0000 </r>
       <r>  -21.7597    1.0000 </r>
       <r>   -1.1943    1.0000 </r>
       <r>   -0.0241    1.0000 </r>
       <r>    0.4488    1.0000 </r>
       <r>    6.5033    0.0000 </r>
       <r>    8.5455    0.0000 </r>
       <r>    8.8807    0.0000 </r>
       <r>   10.6598    0.0000 </r>
      </set>
      <set comment="kpoint 28">
       <r>  -28.8300    1.0000 </r>
       <r>  -28.8293    1.0000 </r>
       <r>  -28.8281    1.0000 </r>
       <r>  -28.8265    1.0000 </r>
       <r>  -28.8256    1.0000 </r>
       <r>  -21.7479    1.0000 </r>
       <r>   -1.4237    1.0000 </r>
       <r>   -0.1557    1.0000 </r>
       <r>    0.3392    1.0000 </r>
       <r>    6.7241    0.0000 </r>
       <r>    8.2286    0.0000 </r>
       <r>   10.1048    0.0000 </r>
       <r>   10.4804    0.0000 </r>
      </set>
      <set comment="kpoint 29">
       <r>  -28.8311    1.0000 </r>
       <r>  -28.8294    1.0000 </r>
       <r>  -28.8275    1.0000 </r>
       <r>  -28.8262    1.0000 </r>
       <r>  -28.8258    1.0000 </r>
       <r>  -21.7527    1.0000 </r>
       <r>   -1.1877    1.0000 </r>
       <r>   -0.0806    1.0000 </r>
       <r>    0.1806    1.0000 </r>
       <r>    6.5921    0.0000 </r>
       <r>    7.9513    0.0000 </r>
       <r>    8.9331    0.0000 </r>
       <r>   11.7984    0.0000 </r>
      </set>
      <set comment="kpoint 30">
       <r>  -28.8304    1.0000 </r>
       <r>  -28.8291    1.0000 </r>
       <r>  -28.8276    1.0000 </r>
       <r>  -28.8262    1.0000 </r>
       <r>  -28.8254    1.0000 </r>
       <r>  -21.7417    1.0000 </r>
       <r>   -1.2505    1.0000 </r>
       <r>   -0.4128    1.0000 </r>
       <r>    0.0805    1.0000 </r>
       <r>    6.9683    0.0000 </r>
       <r>    8.4319    0.0000 </r>
       <r>    8.9005    0.0000 </r>
       <r>   11.5312    0.0000 </r>
      </set>
      <set comment="kpoint 31">
       <r>  -28.8300    1.0000 </r>
       <r>  -28.8284    1.0000 </r>
       <r>  -28.8273    1.0000 </r>
       <r>  -28.8271    1.0000 </r>
       <r>  -28.8255    1.0000 </r>
       <r>  -21.7393    1.0000 </r>
       <r>   -1.1702    1.0000 </r>
       <r>   -0.6725    1.0000 </r>
       <r>    0.1249    1.0000 </r>
       <r>    7.2843    0.0000 </r>
       <r>    8.2963    0.0000 </r>
       <r>    9.9386    0.0000 </r>
       <r>   10.4742    0.0000 </r>
      </set>
      <set comment="kpoint 32">
       <r>  -28.8297    1.0000 </r>
       <r>  -28.8290    1.0000 </r>
       <r>  -28.8279    1.0000 </r>
       <r>  -28.8263    1.0000 </r>
       <r>  -28.8263    1.0000 </r>
       <r>  -21.7463    1.0000 </r>
       <r>   -1.1780    1.0000 </r>
       <r>   -0.5156    1.0000 </r>
       <r>    0.2856    1.0000 </r>
       <r>    7.3923    0.0000 </r>
       <r>    8.0773    0.0000 </r>
       <r>    9.0968    0.0000 </r>
       <r>   11.1199    0.0000 </r>
      </set>
      <set comment="kpoint 33">
       <r>  -28.8314    1.0000 </r>
       <r>  -28.8296    1.0000 </r>
       <r>  -28.8264    1.0000 </r>
       <r>  -28.8255    1.0000 </r>
       <r>  -28.8249    1.0000 </r>
       <r>  -21.7363    1.0000 </r>
       <r>   -1.3413    1.0000 </r>
       <r>   -0.2780    1.0000 </r>
       <r>   -0.1074    1.0000 </r>
       <r>    6.3880    0.0000 </r>
       <r>    7.6831    0.0000 </r>
       <r>   10.3651    0.0000 </r>
       <r>   12.0580    0.0000 </r>
      </set>
      <set comment="kpoint 34">
       <r>  -28.8306    1.0000 </r>
       <r>  -28.8290    1.0000 </r>
       <r>  -28.8266    1.0000 </r>
       <r>  -28.8266    1.0000 </r>
       <r>  -28.8249    1.0000 </r>
       <r>  -21.7347    1.0000 </r>
       <r>   -1.1716    1.0000 </r>
       <r>   -0.6486    1.0000 </r>
       <r>   -0.0708    1.0000 </r>
       <r>    6.8406    0.0000 </r>
       <r>    8.4172    0.0000 </r>
       <r>    9.9315    0.0000 </r>
       <r>   10.6739    0.0000 </r>
      </set>
      <set comment="kpoint 35">
       <r>  -28.8292    1.0000 </r>
       <r>  -28.8292    1.0000 </r>
       <r>  -28.8278    1.0000 </r>
       <r>  -28.8267    1.0000 </r>
       <r>  -28.8249    1.0000 </r>
       <r>  -21.7355    1.0000 </r>
       <r>   -1.0455    1.0000 </r>
       <r>   -0.7370    1.0000 </r>
       <r>   -0.1361    1.0000 </r>
       <r>    7.6124    0.0000 </r>
       <r>    8.5433    0.0000 </r>
       <r>    8.9889    0.0000 </r>
       <r>   10.2757    0.0000 </r>
      </set>
     </set>
    </set>
   </array>
  </eigenvalues>
  <separator name="orbital magnetization" >
   <v name="MAGDIPOLOUT">      0.00000000      0.00000000      0.00000000</v>
  </separator>
  <dos>
   <i name="efermi">      0.86377699 </i>
   <total>
    <array>
     <dimension dim="1">gridpoints</dimension>
     <dimension dim="2">spin</dimension>
     <field>energy</field>
     <field>total</field>
     <field>integrated</field>
     <set>
      <set comment="spin 1">
       <r>   -30.9228     0.0000     0.0000 </r>
       <r>   -30.7695     0.0000     0.0000 </r>
       <r>   -30.6162     0.0000     0.0000 </r>
       <r>   -30.4629     0.0000     0.0000 </r>
       <r>   -30.3096     0.0000     0.0000 </r>
       <r>   -30.1562     0.0000     0.0000 </r>
       <r>   -30.0029     0.0000     0.0000 </r>
       <r>   -29.8496     0.0000     0.0000 </r>
       <r>   -29.6963     0.0000     0.0000 </r>
       <r>   -29.5430     0.0000     0.0000 </r>
       <r>   -29.3897     0.0000     0.0000 </r>
       <r>   -29.2364    -0.0000    -0.0000 </r>
       <r>   -29.0831    -0.0000    -0.0000 </r>
       <r>   -28.9298    -0.4669    -0.0716 </r>
       <r>   -28.7765    67.5011    10.2764 </r>
       <r>   -28.6232    -1.8031    10.0000 </r>
       <r>   -28.4699    -0.0000    10.0000 </r>
       <r>   -28.3166     0.0000    10.0000 </r>
       <r>   -28.1633     0.0000    10.0000 </r>
       <r>   -28.0100     0.0000    10.0000 </r>
       <r>   -27.8567     0.0000    10.0000 </r>
       <r>   -27.7034     0.0000    10.0000 </r>
       <r>   -27.5501     0.0000    10.0000 </r>
       <r>   -27.3968     0.0000    10.0000 </r>
       <r>   -27.2435     0.0000    10.0000 </r>
       <r>   -27.0902     0.0000    10.0000 </r>
       <r>   -26.9369     0.0000    10.0000 </r>
       <r>   -26.7836     0.0000    10.0000 </r>
       <r>   -26.6303     0.0000    10.0000 </r>
       <r>   -26.4770     0.0000    10.0000 </r>
       <r>   -26.3237     0.0000    10.0000 </r>
       <r>   -26.1704     0.0000    10.0000 </r>
       <r>   -26.0171     0.0000    10.0000 </r>
       <r>   -25.8638     0.0000    10.0000 </r>
       <r>   -25.7105     0.0000    10.0000 </r>
       <r>   -25.5572     0.0000    10.0000 </r>
       <r>   -25.4039     0.0000    10.0000 </r>
       <r>   -25.2506     0.0000    10.0000 </r>
       <r>   -25.0973     0.0000    10.0000 </r>
       <r>   -24.9440     0.0000    10.0000 </r>
       <r>   -24.7907     0.0000    10.0000 </r>
       <r>   -24.6374     0.0000    10.0000 </r>
       <r>   -24.4841     0.0000    10.0000 </r>
       <r>   -24.3308     0.0000    10.0000 </r>
       <r>   -24.1775     0.0000    10.0000 </r>
       <r>   -24.0242     0.0000    10.0000 </r>
       <r>   -23.8709     0.0000    10.0000 </r>
       <r>   -23.7176     0.0000    10.0000 </r>
       <r>   -23.5643     0.0000    10.0000 </r>
       <r>   -23.4110     0.0000    10.0000 </r>
       <r>   -23.2577     0.0000    10.0000 </r>
       <r>   -23.1044     0.0000    10.0000 </r>
       <r>   -22.9511     0.0000    10.0000 </r>
       <r>   -22.7978     0.0000    10.0000 </r>
       <r>   -22.6445     0.0000    10.0000 </r>
       <r>   -22.4912     0.0000    10.0000 </r>
       <r>   -22.3379    -0.0000    10.0000 </r>
       <r>   -22.1846    -0.0000    10.0000 </r>
       <r>   -22.0313    -0.0000    10.0000 </r>
       <r>   -21.8780    -0.0466     9.9929 </r>
       <r>   -21.7247    11.3688    11.7357 </r>
       <r>   -21.5714     1.7240    12.0000 </r>
       <r>   -21.4181    -0.0001    12.0000 </r>
       <r>   -21.2648     0.0000    12.0000 </r>
       <r>   -21.1115     0.0000    12.0000 </r>
       <r>   -20.9582     0.0000    12.0000 </r>
       <r>   -20.8049     0.0000    12.0000 </r>
       <r>   -20.6516     0.0000    12.0000 </r>
       <r>   -20.4983     0.0000    12.0000 </r>
       <r>   -20.3450     0.0000    12.0000 </r>
       <r>   -20.1917     0.0000    12.0000 </r>
       <r>   -20.0384     0.0000    12.0000 </r>
       <r>   -19.8851     0.0000    12.0000 </r>
       <r>   -19.7318     0.0000    12.0000 </r>
       <r>   -19.5785     0.0000    12.0000 </r>
       <r>   -19.4252     0.0000    12.0000 </r>
       <r>   -19.2719     0.0000    12.0000 </r>
       <r>   -19.1186     0.0000    12.0000 </r>
       <r>   -18.9653     0.0000    12.0000 </r>
       <r>   -18.8120     0.0000    12.0000 </r>
       <r>   -18.6587     0.0000    12.0000 </r>
       <r>   -18.5054     0.0000    12.0000 </r>
       <r>   -18.3521     0.0000    12.0000 </r>
       <r>   -18.1987     0.0000    12.0000 </r>
       <r>   -18.0454     0.0000    12.0000 </r>
       <r>   -17.8921     0.0000    12.0000 </r>
       <r>   -17.7388     0.0000    12.0000 </r>
       <r>   -17.5855     0.0000    12.0000 </r>
       <r>   -17.4322     0.0000    12.0000 </r>
       <r>   -17.2789     0.0000    12.0000 </r>
       <r>   -17.1256     0.0000    12.0000 </r>
       <r>   -16.9723     0.0000    12.0000 </r>
       <r>   -16.8190     0.0000    12.0000 </r>
       <r>   -16.6657     0.0000    12.0000 </r>
       <r>   -16.5124     0.0000    12.0000 </r>
       <r>   -16.3591     0.0000    12.0000 </r>
       <r>   -16.2058     0.0000    12.0000 </r>
       <r>   -16.0525     0.0000    12.0000 </r>
       <r>   -15.8992     0.0000    12.0000 </r>
       <r>   -15.7459     0.0000    12.0000 </r>
       <r>   -15.5926     0.0000    12.0000 </r>
       <r>   -15.4393     0.0000    12.0000 </r>
       <r>   -15.2860     0.0000    12.0000 </r>
       <r>   -15.1327     0.0000    12.0000 </r>
       <r>   -14.9794     0.0000    12.0000 </r>
       <r>   -14.8261     0.0000    12.0000 </r>
       <r>   -14.6728     0.0000    12.0000 </r>
       <r>   -14.5195     0.0000    12.0000 </r>
       <r>   -14.3662     0.0000    12.0000 </r>
       <r>   -14.2129     0.0000    12.0000 </r>
       <r>   -14.0596     0.0000    12.0000 </r>
       <r>   -13.9063     0.0000    12.0000 </r>
       <r>   -13.7530     0.0000    12.0000 </r>
       <r>   -13.5997     0.0000    12.0000 </r>
       <r>   -13.4464     0.0000    12.0000 </r>
       <r>   -13.2931     0.0000    12.0000 </r>
       <r>   -13.1398     0.0000    12.0000 </r>
       <r>   -12.9865     0.0000    12.0000 </r>
       <r>   -12.8332     0.0000    12.0000 </r>
       <r>   -12.6799     0.0000    12.0000 </r>
       <r>   -12.5266     0.0000    12.0000 </r>
       <r>   -12.3733     0.0000    12.0000 </r>
       <r>   -12.2200     0.0000    12.0000 </r>
       <r>   -12.0667     0.0000    12.0000 </r>
       <r>   -11.9134     0.0000    12.0000 </r>
       <r>   -11.7601     0.0000    12.0000 </r>
       <r>   -11.6068     0.0000    12.0000 </r>
       <r>   -11.4535     0.0000    12.0000 </r>
       <r>   -11.3002     0.0000    12.0000 </r>
       <r>   -11.1469     0.0000    12.0000 </r>
       <r>   -10.9936     0.0000    12.0000 </r>
       <r>   -10.8403     0.0000    12.0000 </r>
       <r>   -10.6870     0.0000    12.0000 </r>
       <r>   -10.5337     0.0000    12.0000 </r>
       <r>   -10.3804     0.0000    12.0000 </r>
       <r>   -10.2271     0.0000    12.0000 </r>
       <r>   -10.0738     0.0000    12.0000 </r>
       <r>    -9.9205     0.0000    12.0000 </r>
       <r>    -9.7672     0.0000    12.0000 </r>
       <r>    -9.6139     0.0000    12.0000 </r>
       <r>    -9.4606     0.0000    12.0000 </r>
       <r>    -9.3073     0.0000    12.0000 </r>
       <r>    -9.1540     0.0000    12.0000 </r>
       <r>    -9.0007     0.0000    12.0000 </r>
       <r>    -8.8474     0.0000    12.0000 </r>
       <r>    -8.6941     0.0000    12.0000 </r>
       <r>    -8.5408     0.0000    12.0000 </r>
       <r>    -8.3875     0.0000    12.0000 </r>
       <r>    -8.2342     0.0000    12.0000 </r>
       <r>    -8.0809     0.0000    12.0000 </r>
       <r>    -7.9276     0.0000    12.0000 </r>
       <r>    -7.7743     0.0000    12.0000 </r>
       <r>    -7.6210     0.0000    12.0000 </r>
       <r>    -7.4677     0.0000    12.0000 </r>
       <r>    -7.3144     0.0000    12.0000 </r>
       <r>    -7.1611     0.0000    12.0000 </r>
       <r>    -7.0078     0.0000    12.0000 </r>
       <r>    -6.8545     0.0000    12.0000 </r>
       <r>    -6.7012     0.0000    12.0000 </r>
       <r>    -6.5479     0.0000    12.0000 </r>
       <r>    -6.3946     0.0000    12.0000 </r>
       <r>    -6.2412     0.0000    12.0000 </r>
       <r>    -6.0879     0.0000    12.0000 </r>
       <r>    -5.9346     0.0000    12.0000 </r>
       <r>    -5.7813     0.0000    12.0000 </r>
       <r>    -5.6280     0.0000    12.0000 </r>
       <r>    -5.4747     0.0000    12.0000 </r>
       <r>    -5.3214     0.0000    12.0000 </r>
       <r>    -5.1681     0.0000    12.0000 </r>
       <r>    -5.0148     0.0000    12.0000 </r>
       <r>    -4.8615     0.0000    12.0000 </r>
       <r>    -4.7082     0.0000    12.0000 </r>
       <r>    -4.5549     0.0000    12.0000 </r>
       <r>    -4.4016     0.0000    12.0000 </r>
       <r>    -4.2483     0.0000    12.0000 </r>
       <r>    -4.0950     0.0000    12.0000 </r>
       <r>    -3.9417     0.0000    12.0000 </r>
       <r>    -3.7884     0.0000    12.0000 </r>
       <r>    -3.6351     0.0000    12.0000 </r>
       <r>    -3.4818     0.0000    12.0000 </r>
       <r>    -3.3285     0.0000    12.0000 </r>
       <r>    -3.1752     0.0000    12.0000 </r>
       <r>    -3.0219     0.0000    12.0000 </r>
       <r>    -2.8686     0.0000    12.0000 </r>
       <r>    -2.7153     0.0000    12.0000 </r>
       <r>    -2.5620     0.0000    12.0000 </r>
       <r>    -2.4087     0.0000    12.0000 </r>
       <r>    -2.2554     0.0000    12.0000 </r>
       <r>    -2.1021    -0.0000    12.0000 </r>
       <r>    -1.9488    -0.0000    12.0000 </r>
       <r>    -1.7955    -0.0000    12.0000 </r>
       <r>    -1.6422     0.0694    12.0106 </r>
       <r>    -1.4889     0.7227    12.1214 </r>
       <r>    -1.3356     2.6057    12.5209 </r>
       <r>    -1.1823     4.2840    13.1776 </r>
       <r>    -1.0290     2.6236    13.5798 </r>
       <r>    -0.8757     1.1055    13.7493 </r>
       <r>    -0.7224     0.9777    13.8992 </r>
       <r>    -0.5691     1.7583    14.1687 </r>
       <r>    -0.4158     1.3635    14.3778 </r>
       <r>    -0.2625     2.0149    14.6867 </r>
       <r>    -0.1092     2.4151    15.0569 </r>
       <r>     0.0441     3.2027    15.5479 </r>
       <r>     0.1974     2.9725    16.0036 </r>
       <r>     0.3507     5.0767    16.7818 </r>
       <r>     0.5040     3.6030    17.3342 </r>
       <r>     0.6573     2.8459    17.7705 </r>
       <r>     0.8106     1.2145    17.9566 </r>
       <r>     0.9639     0.2831    18.0000 </r>
       <r>     1.1172    -0.0002    18.0000 </r>
       <r>     1.2705     0.0000    18.0000 </r>
       <r>     1.4238     0.0000    18.0000 </r>
       <r>     1.5771     0.0000    18.0000 </r>
       <r>     1.7304     0.0000    18.0000 </r>
       <r>     1.8837     0.0000    18.0000 </r>
       <r>     2.0370     0.0000    18.0000 </r>
       <r>     2.1903     0.0000    18.0000 </r>
       <r>     2.3436     0.0000    18.0000 </r>
       <r>     2.4969     0.0000    18.0000 </r>
       <r>     2.6502    -0.0000    18.0000 </r>
       <r>     2.8035    -0.0000    18.0000 </r>
       <r>     2.9568    -0.0000    18.0000 </r>
       <r>     3.1101     0.0005    18.0001 </r>
       <r>     3.2634     0.0175    18.0028 </r>
       <r>     3.4167    -0.0000    18.0027 </r>
       <r>     3.5700    -0.0000    18.0027 </r>
       <r>     3.7233    -0.0023    18.0024 </r>
       <r>     3.8766     0.1504    18.0254 </r>
       <r>     4.0299     0.0331    18.0305 </r>
       <r>     4.1832     0.0693    18.0412 </r>
       <r>     4.3365    -0.0000    18.0412 </r>
       <r>     4.4898    -0.0049    18.0404 </r>
       <r>     4.6431     0.2260    18.0750 </r>
       <r>     4.7964    -0.0059    18.0741 </r>
       <r>     4.9497     0.3366    18.1257 </r>
       <r>     5.1030     0.2357    18.1619 </r>
       <r>     5.2563    -0.0001    18.1619 </r>
       <r>     5.4096     0.0829    18.1746 </r>
       <r>     5.5629     0.7124    18.2838 </r>
       <r>     5.7163     0.2808    18.3268 </r>
       <r>     5.8696     0.6106    18.4204 </r>
       <r>     6.0229     1.2952    18.6190 </r>
       <r>     6.1762     0.5080    18.6969 </r>
       <r>     6.3295     0.7638    18.8140 </r>
       <r>     6.4828     0.7668    18.9315 </r>
       <r>     6.6361     2.0297    19.2427 </r>
       <r>     6.7894     1.2896    19.4404 </r>
       <r>     6.9427     1.1995    19.6242 </r>
       <r>     7.0960     0.7317    19.7364 </r>
       <r>     7.2493     0.1462    19.7588 </r>
       <r>     7.4026     1.1575    19.9363 </r>
       <r>     7.5559     0.5365    20.0185 </r>
       <r>     7.7092     1.1212    20.1904 </r>
       <r>     7.8625     0.0397    20.1965 </r>
       <r>     8.0158     0.7489    20.3113 </r>
       <r>     8.1691     0.6316    20.4081 </r>
       <r>     8.3224     1.8810    20.6965 </r>
       <r>     8.4757     3.1227    21.1752 </r>
       <r>     8.6290     1.4963    21.4046 </r>
       <r>     8.7823     1.0623    21.5674 </r>
       <r>     8.9356     3.0380    22.0332 </r>
       <r>     9.0889     3.1314    22.5132 </r>
       <r>     9.2422     1.1525    22.6899 </r>
       <r>     9.3955     0.2496    22.7282 </r>
       <r>     9.5488     0.4124    22.7914 </r>
       <r>     9.7021     0.4076    22.8539 </r>
       <r>     9.8554     0.8046    22.9772 </r>
       <r>    10.0087     3.2127    23.4697 </r>
       <r>    10.1620     3.1170    23.9476 </r>
       <r>    10.3153     1.9480    24.2462 </r>
       <r>    10.4686     2.3347    24.6041 </r>
       <r>    10.6219     2.1500    24.9337 </r>
       <r>    10.7752     1.3773    25.1449 </r>
       <r>    10.9285     0.3157    25.1933 </r>
       <r>    11.0818     1.0261    25.3506 </r>
       <r>    11.2351     0.6518    25.4505 </r>
       <r>    11.3884     0.2557    25.4897 </r>
       <r>    11.5417     0.5753    25.5779 </r>
       <r>    11.6950     0.5371    25.6602 </r>
       <r>    11.8483     0.7180    25.7703 </r>
       <r>    12.0016     0.3789    25.8284 </r>
       <r>    12.1549     1.0243    25.9854 </r>
       <r>    12.3082    -0.0122    25.9835 </r>
       <r>    12.4615    -0.0000    25.9835 </r>
       <r>    12.6148    -0.0000    25.9835 </r>
       <r>    12.7681    -0.0000    25.9835 </r>
       <r>    12.9214    -0.0036    25.9830 </r>
       <r>    13.0747     0.1120    26.0002 </r>
       <r>    13.2280    -0.0010    26.0000 </r>
       <r>    13.3813     0.0000    26.0000 </r>
       <r>    13.5346     0.0000    26.0000 </r>
       <r>    13.6879     0.0000    26.0000 </r>
       <r>    13.8412     0.0000    26.0000 </r>
       <r>    13.9945     0.0000    26.0000 </r>
       <r>    14.1478     0.0000    26.0000 </r>
       <r>    14.3011     0.0000    26.0000 </r>
       <r>    14.4544     0.0000    26.0000 </r>
       <r>    14.6077     0.0000    26.0000 </r>
       <r>    14.7610     0.0000    26.0000 </r>
       <r>    14.9143     0.0000    26.0000 </r>
       <r>    15.0676     0.0000    26.0000 </r>
      </set>
     </set>
    </array>
   </total>
  </dos>
 </calculation>
 <structure name="finalpos" >
  <crystal>
   <varray name="basis" >
    <v>       4.49474106       0.00000000       0.00000000 </v>
    <v>       2.24737053       3.89255994      -0.00000000 </v>
    <v>       2.24737053       1.29751998       3.66994071 </v>
   </varray>
   <i name="volume">     64.20946234 </i>
   <varray name="rec_basis" >
    <v>       0.22248223      -0.12845017      -0.09082799 </v>
    <v>       0.00000000       0.25690035      -0.09082799 </v>
    <v>      -0.00000000       0.00000000       0.27248397 </v>
   </varray>
  </crystal>
  <varray name="positions" >
   <v>       0.00000000       0.00000000       0.00000000 </v>
  </varray>
  <varray name="velocities" >
   <v>       0.00000000       0.00000000       0.00000000 </v>
  </varray>
 </structure>
</modeling>
