Og_FCC                                  
           1
     4.494741    0.000000    0.000000
     2.247371    3.892560   -0.000000
     2.247371    1.297520    3.669941
   Og
   1
Direct configuration=     1
   0.00000000  0.00000000  0.00000000
