   1   1   0   0
  0.6083477E+02  0.4414576E-09  0.4414576E-09  0.4414576E-09  0.1000000E-15
  1.000000000000000E-004
  CAR 
 Og_FCC                                  
     94.79239869    -57.49686661  301     -3.05345427      1.00000000
    -57.497  0.0000E+00  0.0000E+00
    -56.989  0.0000E+00  0.0000E+00
    -56.482  0.0000E+00  0.0000E+00
    -55.974  0.0000E+00  0.0000E+00
    -55.466  0.0000E+00  0.0000E+00
    -54.959  0.0000E+00  0.0000E+00
    -54.451  0.0000E+00  0.0000E+00
    -53.943  0.0000E+00  0.0000E+00
    -53.436  0.0000E+00  0.0000E+00
    -52.928  0.0000E+00  0.0000E+00
    -52.421  0.0000E+00  0.0000E+00
    -51.913  0.0000E+00  0.0000E+00
    -51.405  0.0000E+00  0.0000E+00
    -50.898  0.0000E+00  0.0000E+00
    -50.390  0.0000E+00  0.4000E+01
    -49.882  0.0000E+00  0.4000E+01
    -49.375  0.0000E+00  0.4000E+01
    -48.867  0.0000E+00  0.4000E+01
    -48.360  0.0000E+00  0.4000E+01
    -47.852  0.0000E+00  0.4000E+01
    -47.344  0.0000E+00  0.4000E+01
    -46.837  0.0000E+00  0.4000E+01
    -46.329  0.0000E+00  0.4000E+01
    -45.821  0.0000E+00  0.4000E+01
    -45.314  0.0000E+00  0.1000E+02
    -44.806  0.0000E+00  0.1000E+02
    -44.298  0.0000E+00  0.1000E+02
    -43.791  0.0000E+00  0.1000E+02
    -43.283  0.0000E+00  0.1000E+02
    -42.776  0.0000E+00  0.1000E+02
    -42.268  0.0000E+00  0.1000E+02
    -41.760  0.0000E+00  0.1000E+02
    -41.253  0.0000E+00  0.1000E+02
    -40.745  0.0000E+00  0.1000E+02
    -40.237  0.0000E+00  0.1000E+02
    -39.730  0.0000E+00  0.1000E+02
    -39.222  0.0000E+00  0.1000E+02
    -38.715  0.0000E+00  0.1000E+02
    -38.207  0.0000E+00  0.1000E+02
    -37.699  0.0000E+00  0.1000E+02
    -37.192  0.0000E+00  0.1000E+02
    -36.684  0.0000E+00  0.1000E+02
    -36.176  0.0000E+00  0.1000E+02
    -35.669  0.0000E+00  0.1000E+02
    -35.161  0.0000E+00  0.1000E+02
    -34.653  0.0000E+00  0.1000E+02
    -34.146  0.0000E+00  0.1000E+02
    -33.638  0.0000E+00  0.1000E+02
    -33.131  0.0000E+00  0.1000E+02
    -32.623  0.0000E+00  0.1000E+02
    -32.115  0.0000E+00  0.1000E+02
    -31.608  0.0000E+00  0.1000E+02
    -31.100  0.0000E+00  0.1000E+02
    -30.592  0.0000E+00  0.1000E+02
    -30.085  0.0000E+00  0.1000E+02
    -29.577  0.0000E+00  0.1000E+02
    -29.070  0.0000E+00  0.1000E+02
    -28.562  0.0000E+00  0.1000E+02
    -28.054  0.0000E+00  0.1000E+02
    -27.547  0.0000E+00  0.1000E+02
    -27.039  0.0000E+00  0.1000E+02
    -26.531  0.0000E+00  0.1000E+02
    -26.024  0.0000E+00  0.1000E+02
    -25.516  0.0000E+00  0.1000E+02
    -25.008  0.0000E+00  0.1000E+02
    -24.501  0.0000E+00  0.1000E+02
    -23.993  0.0000E+00  0.1000E+02
    -23.486  0.0000E+00  0.1000E+02
    -22.978  0.0000E+00  0.1000E+02
    -22.470  0.0000E+00  0.1000E+02
    -21.963  0.0000E+00  0.1000E+02
    -21.455  0.0000E+00  0.1000E+02
    -20.947  0.0000E+00  0.1000E+02
    -20.440  0.0000E+00  0.1000E+02
    -19.932  0.0000E+00  0.1025E+02
    -19.425  0.0000E+00  0.1200E+02
    -18.917  0.0000E+00  0.1200E+02
    -18.409  0.0000E+00  0.1200E+02
    -17.902  0.0000E+00  0.1200E+02
    -17.394  0.0000E+00  0.1200E+02
    -16.886  0.0000E+00  0.1200E+02
    -16.379  0.0000E+00  0.1200E+02
    -15.871  0.0000E+00  0.1200E+02
    -15.364  0.0000E+00  0.1200E+02
    -14.856  0.0000E+00  0.1200E+02
    -14.348  0.0000E+00  0.1200E+02
    -13.841  0.0000E+00  0.1200E+02
    -13.333  0.0000E+00  0.1200E+02
    -12.825  0.0000E+00  0.1200E+02
    -12.318  0.0000E+00  0.1200E+02
    -11.810  0.0000E+00  0.1200E+02
    -11.302  0.0000E+00  0.1200E+02
    -10.795  0.0000E+00  0.1200E+02
    -10.287  0.0000E+00  0.1200E+02
     -9.780  0.0000E+00  0.1200E+02
     -9.272  0.0000E+00  0.1200E+02
     -8.764  0.0000E+00  0.1200E+02
     -8.257  0.0000E+00  0.1200E+02
     -7.749  0.0000E+00  0.1345E+02
     -7.241  0.0000E+00  0.1399E+02
     -6.734  0.0000E+00  0.1400E+02
     -6.226  0.0000E+00  0.1400E+02
     -5.719  0.0000E+00  0.1400E+02
     -5.211  0.0000E+00  0.1469E+02
     -4.703  0.4378E+00  0.1575E+02
     -4.196  0.0000E+00  0.1678E+02
     -3.688  0.0000E+00  0.1763E+02
     -3.180  0.0000E+00  0.1800E+02
     -2.673  0.0000E+00  0.1800E+02
     -2.165  0.0000E+00  0.1800E+02
     -1.657  0.0000E+00  0.1800E+02
     -1.150  0.0000E+00  0.1800E+02
     -0.642  0.0000E+00  0.1800E+02
     -0.135  0.0000E+00  0.1800E+02
      0.373  0.0000E+00  0.1800E+02
      0.881  0.0000E+00  0.1800E+02
      1.388  0.0000E+00  0.1800E+02
      1.896  0.0000E+00  0.1800E+02
      2.404  0.0000E+00  0.1800E+02
      2.911  0.0000E+00  0.1800E+02
      3.419  0.0000E+00  0.1800E+02
      3.926  0.0000E+00  0.1801E+02
      4.434  0.0000E+00  0.1801E+02
      4.942  0.0000E+00  0.1814E+02
      5.449  0.0000E+00  0.1817E+02
      5.957  0.0000E+00  0.1867E+02
      6.465  0.0000E+00  0.1958E+02
      6.972  0.0000E+00  0.2008E+02
      7.480  0.0000E+00  0.2042E+02
      7.988  0.0000E+00  0.2164E+02
      8.495  0.0000E+00  0.2203E+02
      9.003  0.2650E-14  0.2255E+02
      9.510  0.0000E+00  0.2362E+02
     10.018  0.0000E+00  0.2461E+02
     10.526  0.0000E+00  0.2550E+02
     11.033  0.0000E+00  0.2592E+02
     11.541  0.3038E-17  0.2669E+02
     12.049  0.0000E+00  0.2731E+02
     12.556  0.1713E-13  0.2815E+02
     13.064  0.0000E+00  0.2865E+02
     13.571  0.2189E+00  0.2972E+02
     14.079  0.0000E+00  0.3058E+02
     14.587  0.0000E+00  0.3112E+02
     15.094  0.0000E+00  0.3148E+02
     15.602  0.5472E-01  0.3356E+02
     16.110  0.0000E+00  0.3493E+02
     16.617  0.0000E+00  0.3641E+02
     17.125  0.0000E+00  0.3826E+02
     17.633  0.0000E+00  0.4037E+02
     18.140  0.1459E+00  0.4178E+02
     18.648  0.0000E+00  0.4408E+02
     19.155  0.0000E+00  0.4584E+02
     19.663  0.0000E+00  0.4740E+02
     20.171  0.0000E+00  0.4829E+02
     20.678  0.0000E+00  0.4938E+02
     21.186  0.0000E+00  0.5094E+02
     21.694  0.0000E+00  0.5196E+02
     22.201  0.0000E+00  0.5384E+02
     22.709  0.0000E+00  0.5549E+02
     23.216  0.0000E+00  0.5662E+02
     23.724  0.0000E+00  0.5775E+02
     24.232  0.0000E+00  0.5833E+02
     24.739  0.0000E+00  0.5961E+02
     25.247  0.0000E+00  0.6053E+02
     25.755  0.0000E+00  0.6148E+02
     26.262  0.2266E+00  0.6299E+02
     26.770  0.0000E+00  0.6379E+02
     27.277  0.0000E+00  0.6508E+02
     27.785  0.0000E+00  0.6633E+02
     28.293  0.0000E+00  0.6833E+02
     28.800  0.0000E+00  0.7044E+02
     29.308  0.0000E+00  0.7144E+02
     29.816  0.0000E+00  0.7241E+02
     30.323  0.0000E+00  0.7296E+02
     30.831  0.0000E+00  0.7430E+02
     31.339  0.0000E+00  0.7502E+02
     31.846  0.0000E+00  0.7714E+02
     32.354  0.0000E+00  0.7876E+02
     32.861  0.5509E-03  0.8065E+02
     33.369  0.0000E+00  0.8184E+02
     33.877  0.0000E+00  0.8316E+02
     34.384  0.0000E+00  0.8431E+02
     34.892  0.0000E+00  0.8547E+02
     35.400  0.0000E+00  0.8706E+02
     35.907  0.0000E+00  0.8807E+02
     36.415  0.0000E+00  0.8924E+02
     36.922  0.0000E+00  0.9034E+02
     37.430  0.0000E+00  0.9154E+02
     37.938  0.1094E+00  0.9334E+02
     38.445  0.1732E-08  0.9500E+02
     38.953  0.0000E+00  0.9626E+02
     39.461  0.0000E+00  0.9739E+02
     39.968  0.2302E-08  0.9854E+02
     40.476  0.0000E+00  0.1006E+03
     40.984  0.4378E+00  0.1020E+03
     41.491  0.0000E+00  0.1031E+03
     41.999  0.0000E+00  0.1052E+03
     42.506  0.0000E+00  0.1073E+03
     43.014  0.7662E-13  0.1084E+03
     43.522  0.0000E+00  0.1090E+03
     44.029  0.0000E+00  0.1107E+03
     44.537  0.0000E+00  0.1126E+03
     45.045  0.1355E-01  0.1143E+03
     45.552  0.0000E+00  0.1158E+03
     46.060  0.1094E+00  0.1178E+03
     46.567  0.2189E+00  0.1187E+03
     47.075  0.0000E+00  0.1205E+03
     47.583  0.0000E+00  0.1214E+03
     48.090  0.0000E+00  0.1225E+03
     48.598  0.0000E+00  0.1243E+03
     49.106  0.1834E+00  0.1260E+03
     49.613  0.0000E+00  0.1278E+03
     50.121  0.0000E+00  0.1300E+03
     50.629  0.0000E+00  0.1313E+03
     51.136  0.0000E+00  0.1330E+03
     51.644  0.0000E+00  0.1343E+03
     52.151  0.0000E+00  0.1359E+03
     52.659  0.0000E+00  0.1372E+03
     53.167  0.0000E+00  0.1390E+03
     53.674  0.0000E+00  0.1405E+03
     54.182  0.0000E+00  0.1419E+03
     54.690  0.0000E+00  0.1436E+03
     55.197  0.6227E-11  0.1452E+03
     55.705  0.0000E+00  0.1473E+03
     56.212  0.0000E+00  0.1475E+03
     56.720  0.1986E-10  0.1499E+03
     57.228  0.4532E+00  0.1519E+03
     57.735  0.0000E+00  0.1537E+03
     58.243  0.0000E+00  0.1551E+03
     58.751  0.0000E+00  0.1570E+03
     59.258  0.0000E+00  0.1588E+03
     59.766  0.0000E+00  0.1598E+03
     60.273  0.0000E+00  0.1619E+03
     60.781  0.0000E+00  0.1650E+03
     61.289  0.0000E+00  0.1667E+03
     61.796  0.1277E+00  0.1688E+03
     62.304  0.0000E+00  0.1699E+03
     62.812  0.1559E+00  0.1711E+03
     63.319  0.0000E+00  0.1732E+03
     63.827  0.0000E+00  0.1746E+03
     64.335  0.0000E+00  0.1764E+03
     64.842  0.0000E+00  0.1779E+03
     65.350  0.1615E-15  0.1798E+03
     65.857  0.1602E-05  0.1814E+03
     66.365  0.1187E+00  0.1833E+03
     66.873  0.0000E+00  0.1853E+03
     67.380  0.0000E+00  0.1865E+03
     67.888  0.7296E-01  0.1886E+03
     68.396  0.1783E-01  0.1903E+03
     68.903  0.0000E+00  0.1922E+03
     69.411  0.0000E+00  0.1938E+03
     69.918  0.0000E+00  0.1958E+03
     70.426  0.0000E+00  0.1971E+03
     70.934  0.0000E+00  0.1999E+03
     71.441  0.4421E+00  0.2021E+03
     71.949  0.0000E+00  0.2032E+03
     72.457  0.0000E+00  0.2054E+03
     72.964  0.0000E+00  0.2073E+03
     73.472  0.4378E+00  0.2092E+03
     73.980  0.1829E-02  0.2108E+03
     74.487  0.0000E+00  0.2129E+03
     74.995  0.0000E+00  0.2144E+03
     75.502  0.0000E+00  0.2163E+03
     76.010  0.4378E+00  0.2190E+03
     76.518  0.0000E+00  0.2206E+03
     77.025  0.0000E+00  0.2222E+03
     77.533  0.0000E+00  0.2241E+03
     78.041  0.4560E+00  0.2259E+03
     78.548  0.1802E-01  0.2280E+03
     79.056  0.0000E+00  0.2304E+03
     79.563  0.0000E+00  0.2319E+03
     80.071  0.0000E+00  0.2338E+03
     80.579  0.1131E-01  0.2359E+03
     81.086  0.0000E+00  0.2371E+03
     81.594  0.0000E+00  0.2396E+03
     82.102  0.1094E+00  0.2414E+03
     82.609  0.0000E+00  0.2433E+03
     83.117  0.1466E+00  0.2456E+03
     83.625  0.0000E+00  0.2482E+03
     84.132  0.0000E+00  0.2492E+03
     84.640  0.0000E+00  0.2512E+03
     85.147  0.2018E-08  0.2528E+03
     85.655  0.0000E+00  0.2545E+03
     86.163  0.0000E+00  0.2554E+03
     86.670  0.0000E+00  0.2557E+03
     87.178  0.0000E+00  0.2558E+03
     87.686  0.0000E+00  0.2559E+03
     88.193  0.0000E+00  0.2560E+03
     88.701  0.0000E+00  0.2560E+03
     89.208  0.0000E+00  0.2560E+03
     89.716  0.0000E+00  0.2560E+03
     90.224  0.0000E+00  0.2560E+03
     90.731  0.0000E+00  0.2560E+03
     91.239  0.0000E+00  0.2560E+03
     91.747  0.0000E+00  0.2560E+03
     92.254  0.0000E+00  0.2560E+03
     92.762  0.0000E+00  0.2560E+03
     93.270  0.0000E+00  0.2560E+03
     93.777  0.0000E+00  0.2560E+03
     94.285  0.0000E+00  0.2560E+03
     94.792  0.0000E+00  0.2560E+03
