   1   1   0   0
  0.5789729E+02  0.4342346E-09  0.4342346E-09  0.4342346E-09  0.1000000E-15
  1.000000000000000E-004
  CAR 
 Og_FCC                                  
     58.50359084    -45.16843479  301      2.69348371      1.00000000
    -45.168  0.0000E+00  0.0000E+00
    -44.823  0.0000E+00  0.0000E+00
    -44.477  0.0000E+00  0.0000E+00
    -44.132  0.0000E+00  0.0000E+00
    -43.786  0.0000E+00  0.0000E+00
    -43.441  0.0000E+00  0.0000E+00
    -43.095  0.0000E+00  0.0000E+00
    -42.749  0.0000E+00  0.0000E+00
    -42.404  0.0000E+00  0.0000E+00
    -42.058  0.0000E+00  0.0000E+00
    -41.713  0.0000E+00  0.0000E+00
    -41.367  0.0000E+00  0.0000E+00
    -41.022  0.0000E+00  0.0000E+00
    -40.676  0.0000E+00  0.0000E+00
    -40.330  0.0000E+00  0.4000E+01
    -39.985  0.0000E+00  0.4000E+01
    -39.639  0.0000E+00  0.4000E+01
    -39.294  0.0000E+00  0.4000E+01
    -38.948  0.0000E+00  0.4000E+01
    -38.603  0.0000E+00  0.4000E+01
    -38.257  0.0000E+00  0.4000E+01
    -37.911  0.0000E+00  0.4000E+01
    -37.566  0.0000E+00  0.4000E+01
    -37.220  0.0000E+00  0.4000E+01
    -36.875  0.0000E+00  0.4000E+01
    -36.529  0.0000E+00  0.4000E+01
    -36.184  0.0000E+00  0.4000E+01
    -35.838  0.0000E+00  0.4000E+01
    -35.492  0.0000E+00  0.4000E+01
    -35.147  0.0000E+00  0.4000E+01
    -34.801  0.0000E+00  0.4000E+01
    -34.456  0.0000E+00  0.4000E+01
    -34.110  0.0000E+00  0.4000E+01
    -33.765  0.0000E+00  0.4000E+01
    -33.419  0.0000E+00  0.4000E+01
    -33.073  0.0000E+00  0.4000E+01
    -32.728  0.0000E+00  0.1000E+02
    -32.382  0.0000E+00  0.1000E+02
    -32.037  0.0000E+00  0.1000E+02
    -31.691  0.0000E+00  0.1000E+02
    -31.345  0.0000E+00  0.1000E+02
    -31.000  0.0000E+00  0.1000E+02
    -30.654  0.0000E+00  0.1000E+02
    -30.309  0.0000E+00  0.1000E+02
    -29.963  0.0000E+00  0.1000E+02
    -29.618  0.0000E+00  0.1000E+02
    -29.272  0.0000E+00  0.1000E+02
    -28.926  0.0000E+00  0.1000E+02
    -28.581  0.0000E+00  0.1000E+02
    -28.235  0.0000E+00  0.1000E+02
    -27.890  0.0000E+00  0.1000E+02
    -27.544  0.0000E+00  0.1000E+02
    -27.199  0.0000E+00  0.1000E+02
    -26.853  0.0000E+00  0.1000E+02
    -26.507  0.0000E+00  0.1000E+02
    -26.162  0.0000E+00  0.1000E+02
    -25.816  0.0000E+00  0.1000E+02
    -25.471  0.0000E+00  0.1000E+02
    -25.125  0.1608E+00  0.1014E+02
    -24.780  0.0000E+00  0.1200E+02
    -24.434  0.0000E+00  0.1200E+02
    -24.088  0.0000E+00  0.1200E+02
    -23.743  0.0000E+00  0.1200E+02
    -23.397  0.0000E+00  0.1200E+02
    -23.052  0.0000E+00  0.1200E+02
    -22.706  0.0000E+00  0.1200E+02
    -22.361  0.0000E+00  0.1200E+02
    -22.015  0.0000E+00  0.1200E+02
    -21.669  0.0000E+00  0.1200E+02
    -21.324  0.0000E+00  0.1200E+02
    -20.978  0.0000E+00  0.1200E+02
    -20.633  0.0000E+00  0.1200E+02
    -20.287  0.0000E+00  0.1200E+02
    -19.942  0.0000E+00  0.1200E+02
    -19.596  0.0000E+00  0.1200E+02
    -19.250  0.0000E+00  0.1200E+02
    -18.905  0.0000E+00  0.1200E+02
    -18.559  0.0000E+00  0.1200E+02
    -18.214  0.0000E+00  0.1200E+02
    -17.868  0.0000E+00  0.1200E+02
    -17.523  0.0000E+00  0.1200E+02
    -17.177  0.0000E+00  0.1200E+02
    -16.831  0.0000E+00  0.1200E+02
    -16.486  0.0000E+00  0.1200E+02
    -16.140  0.0000E+00  0.1200E+02
    -15.795  0.0000E+00  0.1200E+02
    -15.449  0.0000E+00  0.1200E+02
    -15.104  0.0000E+00  0.1200E+02
    -14.758  0.0000E+00  0.1200E+02
    -14.412  0.0000E+00  0.1200E+02
    -14.067  0.0000E+00  0.1200E+02
    -13.721  0.0000E+00  0.1200E+02
    -13.376  0.0000E+00  0.1200E+02
    -13.030  0.0000E+00  0.1200E+02
    -12.685  0.0000E+00  0.1200E+02
    -12.339  0.0000E+00  0.1200E+02
    -11.993  0.0000E+00  0.1200E+02
    -11.648  0.0000E+00  0.1200E+02
    -11.302  0.0000E+00  0.1200E+02
    -10.957  0.0000E+00  0.1200E+02
    -10.611  0.0000E+00  0.1200E+02
    -10.266  0.0000E+00  0.1200E+02
     -9.920  0.0000E+00  0.1386E+02
     -9.574  0.0000E+00  0.1400E+02
     -9.229  0.0000E+00  0.1400E+02
     -8.883  0.0000E+00  0.1400E+02
     -8.538  0.0000E+00  0.1400E+02
     -8.192  0.0000E+00  0.1400E+02
     -7.847  0.0000E+00  0.1400E+02
     -7.501  0.0000E+00  0.1400E+02
     -7.155  0.0000E+00  0.1400E+02
     -6.810  0.0000E+00  0.1400E+02
     -6.464  0.0000E+00  0.1400E+02
     -6.119  0.0000E+00  0.1400E+02
     -5.773  0.0000E+00  0.1400E+02
     -5.427  0.0000E+00  0.1400E+02
     -5.082  0.0000E+00  0.1400E+02
     -4.736  0.0000E+00  0.1400E+02
     -4.391  0.0000E+00  0.1400E+02
     -4.045  0.0000E+00  0.1400E+02
     -3.700  0.0000E+00  0.1400E+02
     -3.354  0.0000E+00  0.1400E+02
     -3.008  0.0000E+00  0.1400E+02
     -2.663  0.0000E+00  0.1400E+02
     -2.317  0.0000E+00  0.1400E+02
     -1.972  0.0000E+00  0.1400E+02
     -1.626  0.0000E+00  0.1400E+02
     -1.281  0.0000E+00  0.1400E+02
     -0.935  0.0000E+00  0.1406E+02
     -0.589  0.9182E-08  0.1540E+02
     -0.244  0.0000E+00  0.1575E+02
      0.102  0.0000E+00  0.1586E+02
      0.447  0.0000E+00  0.1619E+02
      0.793  0.2144E+00  0.1669E+02
      1.138  0.0000E+00  0.1696E+02
      1.484  0.0000E+00  0.1741E+02
      1.830  0.0000E+00  0.1774E+02
      2.175  0.0000E+00  0.1791E+02
      2.521  0.0000E+00  0.1798E+02
      2.866  0.0000E+00  0.1800E+02
      3.212  0.0000E+00  0.1800E+02
      3.557  0.0000E+00  0.1801E+02
      3.903  0.0000E+00  0.1801E+02
      4.249  0.0000E+00  0.1801E+02
      4.594  0.0000E+00  0.1801E+02
      4.940  0.0000E+00  0.1801E+02
      5.285  0.0000E+00  0.1808E+02
      5.631  0.0000E+00  0.1808E+02
      5.976  0.0000E+00  0.1814E+02
      6.322  0.0000E+00  0.1825E+02
      6.668  0.0000E+00  0.1839E+02
      7.013  0.0000E+00  0.1867E+02
      7.359  0.2315E-04  0.1933E+02
      7.704  0.0000E+00  0.1956E+02
      8.050  0.0000E+00  0.2003E+02
      8.395  0.7648E-01  0.2005E+02
      8.741  0.0000E+00  0.2031E+02
      9.087  0.0000E+00  0.2064E+02
      9.432  0.0000E+00  0.2142E+02
      9.778  0.0000E+00  0.2169E+02
     10.123  0.0000E+00  0.2225E+02
     10.469  0.0000E+00  0.2238E+02
     10.814  0.0000E+00  0.2294E+02
     11.160  0.3337E-01  0.2359E+02
     11.506  0.0000E+00  0.2393E+02
     11.851  0.7269E-04  0.2442E+02
     12.197  0.6431E+00  0.2544E+02
     12.542  0.1522E+00  0.2572E+02
     12.888  0.0000E+00  0.2606E+02
     13.233  0.0000E+00  0.2624E+02
     13.579  0.0000E+00  0.2704E+02
     13.925  0.0000E+00  0.2748E+02
     14.270  0.0000E+00  0.2812E+02
     14.616  0.0000E+00  0.2889E+02
     14.961  0.0000E+00  0.2942E+02
     15.307  0.0000E+00  0.2975E+02
     15.652  0.0000E+00  0.3047E+02
     15.998  0.0000E+00  0.3059E+02
     16.344  0.0000E+00  0.3116E+02
     16.689  0.0000E+00  0.3138E+02
     17.035  0.0000E+00  0.3227E+02
     17.380  0.0000E+00  0.3294E+02
     17.726  0.0000E+00  0.3361E+02
     18.072  0.8038E-01  0.3548E+02
     18.417  0.5951E-01  0.3755E+02
     18.763  0.7762E+00  0.3943E+02
     19.108  0.0000E+00  0.4070E+02
     19.454  0.2947E+00  0.4194E+02
     19.799  0.0000E+00  0.4306E+02
     20.145  0.3026E-04  0.4398E+02
     20.491  0.0000E+00  0.4544E+02
     20.836  0.0000E+00  0.4600E+02
     21.182  0.0000E+00  0.4641E+02
     21.527  0.0000E+00  0.4646E+02
     21.873  0.0000E+00  0.4670E+02
     22.218  0.0000E+00  0.4718E+02
     22.564  0.0000E+00  0.4795E+02
     22.910  0.0000E+00  0.4831E+02
     23.255  0.0000E+00  0.4908E+02
     23.601  0.0000E+00  0.4933E+02
     23.946  0.0000E+00  0.5039E+02
     24.292  0.0000E+00  0.5111E+02
     24.637  0.0000E+00  0.5214E+02
     24.983  0.0000E+00  0.5347E+02
     25.329  0.0000E+00  0.5473E+02
     25.674  0.0000E+00  0.5599E+02
     26.020  0.0000E+00  0.5651E+02
     26.365  0.3279E-01  0.5743E+02
     26.711  0.0000E+00  0.5767E+02
     27.056  0.0000E+00  0.5811E+02
     27.402  0.0000E+00  0.5908E+02
     27.748  0.0000E+00  0.5978E+02
     28.093  0.0000E+00  0.6035E+02
     28.439  0.2876E-06  0.6094E+02
     28.784  0.0000E+00  0.6191E+02
     29.130  0.0000E+00  0.6224E+02
     29.475  0.0000E+00  0.6266E+02
     29.821  0.7639E-14  0.6395E+02
     30.167  0.0000E+00  0.6459E+02
     30.512  0.0000E+00  0.6505E+02
     30.858  0.0000E+00  0.6585E+02
     31.203  0.0000E+00  0.6671E+02
     31.549  0.6431E+00  0.6734E+02
     31.894  0.2099E+00  0.6883E+02
     32.240  0.0000E+00  0.6993E+02
     32.586  0.0000E+00  0.7052E+02
     32.931  0.4019E-01  0.7182E+02
     33.277  0.0000E+00  0.7275E+02
     33.622  0.0000E+00  0.7325E+02
     33.968  0.0000E+00  0.7427E+02
     34.313  0.0000E+00  0.7444E+02
     34.659  0.0000E+00  0.7567E+02
     35.005  0.8949E-13  0.7646E+02
     35.350  0.0000E+00  0.7787E+02
     35.696  0.1381E-01  0.7862E+02
     36.041  0.0000E+00  0.7996E+02
     36.387  0.1650E-12  0.8035E+02
     36.732  0.0000E+00  0.8142E+02
     37.078  0.5069E+00  0.8325E+02
     37.424  0.0000E+00  0.8330E+02
     37.769  0.0000E+00  0.8424E+02
     38.115  0.6431E+00  0.8505E+02
     38.460  0.1476E-09  0.8573E+02
     38.806  0.0000E+00  0.8607E+02
     39.151  0.0000E+00  0.8693E+02
     39.497  0.1923E-11  0.8809E+02
     39.843  0.0000E+00  0.8894E+02
     40.188  0.0000E+00  0.8965E+02
     40.534  0.8038E-01  0.9063E+02
     40.879  0.2143E+00  0.9119E+02
     41.225  0.0000E+00  0.9270E+02
     41.570  0.0000E+00  0.9364E+02
     41.916  0.6431E+00  0.9492E+02
     42.262  0.6422E+00  0.9573E+02
     42.607  0.2679E-01  0.9630E+02
     42.953  0.6387E+00  0.9757E+02
     43.298  0.1476E+00  0.9832E+02
     43.644  0.0000E+00  0.9906E+02
     43.990  0.0000E+00  0.1000E+03
     44.335  0.2679E-01  0.1008E+03
     44.681  0.4200E-01  0.1017E+03
     45.026  0.0000E+00  0.1026E+03
     45.372  0.0000E+00  0.1037E+03
     45.717  0.0000E+00  0.1049E+03
     46.063  0.6576E-02  0.1058E+03
     46.409  0.2138E+00  0.1069E+03
     46.754  0.6543E-08  0.1079E+03
     47.100  0.0000E+00  0.1087E+03
     47.445  0.0000E+00  0.1101E+03
     47.791  0.0000E+00  0.1113E+03
     48.136  0.0000E+00  0.1116E+03
     48.482  0.0000E+00  0.1128E+03
     48.828  0.0000E+00  0.1138E+03
     49.173  0.6431E+00  0.1148E+03
     49.519  0.0000E+00  0.1158E+03
     49.864  0.0000E+00  0.1167E+03
     50.210  0.9437E-01  0.1175E+03
     50.555  0.0000E+00  0.1189E+03
     50.901  0.0000E+00  0.1193E+03
     51.247  0.0000E+00  0.1206E+03
     51.592  0.2178E-05  0.1219E+03
     51.938  0.0000E+00  0.1234E+03
     52.283  0.0000E+00  0.1248E+03
     52.629  0.0000E+00  0.1258E+03
     52.974  0.0000E+00  0.1262E+03
     53.320  0.0000E+00  0.1270E+03
     53.666  0.0000E+00  0.1273E+03
     54.011  0.0000E+00  0.1280E+03
     54.357  0.0000E+00  0.1280E+03
     54.702  0.0000E+00  0.1280E+03
     55.048  0.0000E+00  0.1280E+03
     55.393  0.0000E+00  0.1280E+03
     55.739  0.0000E+00  0.1280E+03
     56.085  0.0000E+00  0.1280E+03
     56.430  0.0000E+00  0.1280E+03
     56.776  0.0000E+00  0.1280E+03
     57.121  0.0000E+00  0.1280E+03
     57.467  0.0000E+00  0.1280E+03
     57.812  0.0000E+00  0.1280E+03
     58.158  0.0000E+00  0.1280E+03
     58.504  0.0000E+00  0.1280E+03
