 vasp.5.4.4.18Apr17-6-g9f103f2a35 (build Jul 09 2018 16:43:14) complex          
  
 executed on             LinuxIFC date 2018.11.28  13:51:47
 running on   64 total cores
 distrk:  each k-point on    2 cores,   32 groups
 distr:  one band on NCORES_PER_BAND=   1 cores,    2 groups


--------------------------------------------------------------------------------------------------------


 INCAR:
 POTCAR:    PAW Og, JanMewes Oct 18               

 ----------------------------------------------------------------------------- 
|                                                                             |
|           W    W    AA    RRRRR   N    N  II  N    N   GGGG   !!!           |
|           W    W   A  A   R    R  NN   N  II  NN   N  G    G  !!!           |
|           W    W  A    A  R    R  N N  N  II  N N  N  G       !!!           |
|           W WW W  AAAAAA  RRRRR   N  N N  II  N  N N  G  GGG   !            |
|           WW  WW  A    A  R   R   N   NN  II  N   NN  G    G                |
|           W    W  A    A  R    R  N    N  II  N    N   GGGG   !!!           |
|                                                                             |
|      For optimal performance we recommend to set                            |
|        NCORE= 4 - approx SQRT( number of cores)                             |
|      NCORE specifies how many cores store one orbital (NPAR=cpu/NCORE).     |
|      This setting can  greatly improve the performance of VASP for DFT.     |
|      The default,   NCORE=1            might be grossly inefficient         |
|      on modern multi-core architectures or massively parallel machines.     |
|      Do your own testing !!!!                                               |
|      Unfortunately you need to use the default for GW and RPA calculations. |
|      (for HF NCORE is supported but not extensively tested yet)             |
|                                                                             |
 ----------------------------------------------------------------------------- 


 ----------------------------------------------------------------------------- 
|                                                                             |
|           W    W    AA    RRRRR   N    N  II  N    N   GGGG   !!!           |
|           W    W   A  A   R    R  NN   N  II  NN   N  G    G  !!!           |
|           W    W  A    A  R    R  N N  N  II  N N  N  G       !!!           |
|           W WW W  AAAAAA  RRRRR   N  N N  II  N  N N  G  GGG   !            |
|           WW  WW  A    A  R   R   N   NN  II  N   NN  G    G                |
|           W    W  A    A  R    R  N    N  II  N    N   GGGG   !!!           |
|                                                                             |
|      You have enabled k-point parallelism (KPAR>1).                         |
|      This developmental code was originally  written by Paul Kent at ORNL,  |
|      and carefully double checked in Vienna.                                |
|      GW as well as linear response parallelism added by Martijn Marsman     |
|      and Georg Kresse.                                                      |
|      Carefully verify results versus KPAR=1.                                |
|      Report problems to Paul Kent and Vienna.                               |
|                                                                             |
 ----------------------------------------------------------------------------- 

 POTCAR:    PAW Og, JanMewes Oct 18               
  local pseudopotential read in
  partial core-charges read in
  partial kinetic energy density read in
  kinetic energy density of atom read in
  atomic valenz-charges read in
  non local Contribution for L=           2  read in
    real space projection operators read in
  non local Contribution for L=           2  read in
    real space projection operators read in
  non local Contribution for L=           0  read in
    real space projection operators read in
  non local Contribution for L=           0  read in
    real space projection operators read in
  non local Contribution for L=           1  read in
    real space projection operators read in
  non local Contribution for L=           1  read in
    real space projection operators read in
    PAW grid and wavefunctions read in
 
   number of l-projection  operators is LMAX  =           6
   number of lm-projection operators is LMMAX =          18
 
  PAW Og, JanMewes Oct 18               :
 energy of atom  1       EATOM=-2640.5573
 kinetic energy error for atom=    0.1815 (will be added to EATOM!!)
 
 
 POSCAR: Og_FCC                                  
  positions in direct lattice
  velocities in cartesian coordinates
 exchange correlation table for  LEXCH =        8
   RHO(1)=    0.500       N(1)  =     2000
   RHO(2)=  100.500       N(2)  =     4000
 


--------------------------------------------------------------------------------------------------------


 ion  position               nearest neighbor table
   1  0.000  0.000  0.000-
 

IMPORTANT INFORMATION: All symmetrisations will be switched off!
NOSYMM: (Re-)initialisation of all symmetry stuff for point group C_1.

 
 
 KPOINTS: k-points                                

Automatic generation of k-mesh.
Space group operators:
 irot       det(A)        alpha          n_x          n_y          n_z        tau_x        tau_y        tau_z
    1     1.000000     0.000000     1.000000     0.000000     0.000000     0.000000     0.000000     0.000000
 
 Subroutine IBZKPT returns following result:
 ===========================================
 
 Found    216 irreducible k-points:
 
 Following reciprocal coordinates:
            Coordinates               Weight
  0.000000  0.000000  0.000000      1.000000
  0.166667  0.000000  0.000000      1.000000
  0.333333  0.000000  0.000000      1.000000
  0.500000  0.000000  0.000000      1.000000
 -0.333333 -0.000000  0.000000      1.000000
 -0.166667 -0.000000 -0.000000      1.000000
 -0.000000  0.166667 -0.000000      1.000000
  0.166667  0.166667  0.000000      1.000000
  0.333333  0.166667 -0.000000      1.000000
  0.500000  0.166667  0.000000      1.000000
 -0.333333  0.166667 -0.000000      1.000000
 -0.166667  0.166667 -0.000000      1.000000
  0.000000  0.333333 -0.000000      1.000000
  0.166667  0.333333  0.000000      1.000000
  0.333333  0.333333  0.000000      1.000000
  0.500000  0.333333  0.000000      1.000000
 -0.333333  0.333333 -0.000000      1.000000
 -0.166667  0.333333 -0.000000      1.000000
  0.000000  0.500000 -0.000000      1.000000
  0.166667  0.500000  0.000000      1.000000
  0.333333  0.500000  0.000000      1.000000
  0.500000  0.500000  0.000000      1.000000
 -0.333333  0.500000 -0.000000      1.000000
 -0.166667  0.500000 -0.000000      1.000000
 -0.000000 -0.333333  0.000000      1.000000
  0.166667 -0.333333  0.000000      1.000000
  0.333333 -0.333333  0.000000      1.000000
  0.500000 -0.333333  0.000000      1.000000
 -0.333333 -0.333333 -0.000000      1.000000
 -0.166667 -0.333333  0.000000      1.000000
  0.000000 -0.166667  0.000000      1.000000
  0.166667 -0.166667  0.000000      1.000000
  0.333333 -0.166667  0.000000      1.000000
  0.500000 -0.166667  0.000000      1.000000
 -0.333333 -0.166667  0.000000      1.000000
 -0.166667 -0.166667  0.000000      1.000000
  0.000000  0.000000  0.166667      1.000000
  0.166667  0.000000  0.166667      1.000000
  0.333333 -0.000000  0.166667      1.000000
  0.500000 -0.000000  0.166667      1.000000
 -0.333333 -0.000000  0.166667      1.000000
 -0.166667  0.000000  0.166667      1.000000
 -0.000000  0.166667  0.166667      1.000000
  0.166667  0.166667  0.166667      1.000000
  0.333333  0.166667  0.166667      1.000000
  0.500000  0.166667  0.166667      1.000000
 -0.333333  0.166667  0.166667      1.000000
 -0.166667  0.166667  0.166667      1.000000
 -0.000000  0.333333  0.166667      1.000000
  0.166667  0.333333  0.166667      1.000000
  0.333333  0.333333  0.166667      1.000000
  0.500000  0.333333  0.166667      1.000000
 -0.333333  0.333333  0.166667      1.000000
 -0.166667  0.333333  0.166667      1.000000
 -0.000000  0.500000  0.166667      1.000000
  0.166667  0.500000  0.166667      1.000000
  0.333333  0.500000  0.166667      1.000000
  0.500000  0.500000  0.166667      1.000000
 -0.333333  0.500000  0.166667      1.000000
 -0.166667  0.500000  0.166667      1.000000
 -0.000000 -0.333333  0.166667      1.000000
  0.166667 -0.333333  0.166667      1.000000
  0.333333 -0.333333  0.166667      1.000000
  0.500000 -0.333333  0.166667      1.000000
 -0.333333 -0.333333  0.166667      1.000000
 -0.166667 -0.333333  0.166667      1.000000
  0.000000 -0.166667  0.166667      1.000000
  0.166667 -0.166667  0.166667      1.000000
  0.333333 -0.166667  0.166667      1.000000
  0.500000 -0.166667  0.166667      1.000000
 -0.333333 -0.166667  0.166667      1.000000
 -0.166667 -0.166667  0.166667      1.000000
  0.000000  0.000000  0.333333      1.000000
  0.166667  0.000000  0.333333      1.000000
  0.333333  0.000000  0.333333      1.000000
  0.500000 -0.000000  0.333333      1.000000
 -0.333333  0.000000  0.333333      1.000000
 -0.166667  0.000000  0.333333      1.000000
 -0.000000  0.166667  0.333333      1.000000
  0.166667  0.166667  0.333333      1.000000
  0.333333  0.166667  0.333333      1.000000
  0.500000  0.166667  0.333333      1.000000
 -0.333333  0.166667  0.333333      1.000000
 -0.166667  0.166667  0.333333      1.000000
 -0.000000  0.333333  0.333333      1.000000
  0.166667  0.333333  0.333333      1.000000
  0.333333  0.333333  0.333333      1.000000
  0.500000  0.333333  0.333333      1.000000
 -0.333333  0.333333  0.333333      1.000000
 -0.166667  0.333333  0.333333      1.000000
  0.000000  0.500000  0.333333      1.000000
  0.166667  0.500000  0.333333      1.000000
  0.333333  0.500000  0.333333      1.000000
  0.500000  0.500000  0.333333      1.000000
 -0.333333  0.500000  0.333333      1.000000
 -0.166667  0.500000  0.333333      1.000000
  0.000000 -0.333333  0.333333      1.000000
  0.166667 -0.333333  0.333333      1.000000
  0.333333 -0.333333  0.333333      1.000000
  0.500000 -0.333333  0.333333      1.000000
 -0.333333 -0.333333  0.333333      1.000000
 -0.166667 -0.333333  0.333333      1.000000
  0.000000 -0.166667  0.333333      1.000000
  0.166667 -0.166667  0.333333      1.000000
  0.333333 -0.166667  0.333333      1.000000
  0.500000 -0.166667  0.333333      1.000000
 -0.333333 -0.166667  0.333333      1.000000
 -0.166667 -0.166667  0.333333      1.000000
  0.000000  0.000000  0.500000      1.000000
  0.166667  0.000000  0.500000      1.000000
  0.333333  0.000000  0.500000      1.000000
  0.500000 -0.000000  0.500000      1.000000
 -0.333333  0.000000  0.500000      1.000000
 -0.166667  0.000000  0.500000      1.000000
 -0.000000  0.166667  0.500000      1.000000
  0.166667  0.166667  0.500000      1.000000
  0.333333  0.166667  0.500000      1.000000
  0.500000  0.166667  0.500000      1.000000
 -0.333333  0.166667  0.500000      1.000000
 -0.166667  0.166667  0.500000      1.000000
  0.000000  0.333333  0.500000      1.000000
  0.166667  0.333333  0.500000      1.000000
  0.333333  0.333333  0.500000      1.000000
  0.500000  0.333333  0.500000      1.000000
 -0.333333  0.333333  0.500000      1.000000
 -0.166667  0.333333  0.500000      1.000000
 -0.000000  0.500000  0.500000      1.000000
  0.166667  0.500000  0.500000      1.000000
  0.333333  0.500000  0.500000      1.000000
  0.500000  0.500000  0.500000      1.000000
 -0.333333  0.500000  0.500000      1.000000
 -0.166667  0.500000  0.500000      1.000000
  0.000000 -0.333333  0.500000      1.000000
  0.166667 -0.333333  0.500000      1.000000
  0.333333 -0.333333  0.500000      1.000000
  0.500000 -0.333333  0.500000      1.000000
 -0.333333 -0.333333  0.500000      1.000000
 -0.166667 -0.333333  0.500000      1.000000
  0.000000 -0.166667  0.500000      1.000000
  0.166667 -0.166667  0.500000      1.000000
  0.333333 -0.166667  0.500000      1.000000
  0.500000 -0.166667  0.500000      1.000000
 -0.333333 -0.166667  0.500000      1.000000
 -0.166667 -0.166667  0.500000      1.000000
  0.000000  0.000000 -0.333333      1.000000
  0.166667 -0.000000 -0.333333      1.000000
  0.333333 -0.000000 -0.333333      1.000000
  0.500000  0.000000 -0.333333      1.000000
 -0.333333 -0.000000 -0.333333      1.000000
 -0.166667 -0.000000 -0.333333      1.000000
 -0.000000  0.166667 -0.333333      1.000000
  0.166667  0.166667 -0.333333      1.000000
  0.333333  0.166667 -0.333333      1.000000
  0.500000  0.166667 -0.333333      1.000000
 -0.333333  0.166667 -0.333333      1.000000
 -0.166667  0.166667 -0.333333      1.000000
  0.000000  0.333333 -0.333333      1.000000
  0.166667  0.333333 -0.333333      1.000000
  0.333333  0.333333 -0.333333      1.000000
  0.500000  0.333333 -0.333333      1.000000
 -0.333333  0.333333 -0.333333      1.000000
 -0.166667  0.333333 -0.333333      1.000000
 -0.000000  0.500000 -0.333333      1.000000
  0.166667  0.500000 -0.333333      1.000000
  0.333333  0.500000 -0.333333      1.000000
  0.500000  0.500000 -0.333333      1.000000
 -0.333333  0.500000 -0.333333      1.000000
 -0.166667  0.500000 -0.333333      1.000000
  0.000000 -0.333333 -0.333333      1.000000
  0.166667 -0.333333 -0.333333      1.000000
  0.333333 -0.333333 -0.333333      1.000000
  0.500000 -0.333333 -0.333333      1.000000
 -0.333333 -0.333333 -0.333333      1.000000
 -0.166667 -0.333333 -0.333333      1.000000
  0.000000 -0.166667 -0.333333      1.000000
  0.166667 -0.166667 -0.333333      1.000000
  0.333333 -0.166667 -0.333333      1.000000
  0.500000 -0.166667 -0.333333      1.000000
 -0.333333 -0.166667 -0.333333      1.000000
 -0.166667 -0.166667 -0.333333      1.000000
 -0.000000 -0.000000 -0.166667      1.000000
  0.166667 -0.000000 -0.166667      1.000000
  0.333333  0.000000 -0.166667      1.000000
  0.500000  0.000000 -0.166667      1.000000
 -0.333333  0.000000 -0.166667      1.000000
 -0.166667 -0.000000 -0.166667      1.000000
 -0.000000  0.166667 -0.166667      1.000000
  0.166667  0.166667 -0.166667      1.000000
  0.333333  0.166667 -0.166667      1.000000
  0.500000  0.166667 -0.166667      1.000000
 -0.333333  0.166667 -0.166667      1.000000
 -0.166667  0.166667 -0.166667      1.000000
  0.000000  0.333333 -0.166667      1.000000
  0.166667  0.333333 -0.166667      1.000000
  0.333333  0.333333 -0.166667      1.000000
  0.500000  0.333333 -0.166667      1.000000
 -0.333333  0.333333 -0.166667      1.000000
 -0.166667  0.333333 -0.166667      1.000000
 -0.000000  0.500000 -0.166667      1.000000
  0.166667  0.500000 -0.166667      1.000000
  0.333333  0.500000 -0.166667      1.000000
  0.500000  0.500000 -0.166667      1.000000
 -0.333333  0.500000 -0.166667      1.000000
 -0.166667  0.500000 -0.166667      1.000000
  0.000000 -0.333333 -0.166667      1.000000
  0.166667 -0.333333 -0.166667      1.000000
  0.333333 -0.333333 -0.166667      1.000000
  0.500000 -0.333333 -0.166667      1.000000
 -0.333333 -0.333333 -0.166667      1.000000
 -0.166667 -0.333333 -0.166667      1.000000
  0.000000 -0.166667 -0.166667      1.000000
  0.166667 -0.166667 -0.166667      1.000000
  0.333333 -0.166667 -0.166667      1.000000
  0.500000 -0.166667 -0.166667      1.000000
 -0.333333 -0.166667 -0.166667      1.000000
 -0.166667 -0.166667 -0.166667      1.000000
 
 Following cartesian coordinates:
            Coordinates               Weight
  0.000000  0.000000  0.000000      1.000000
  0.038382 -0.022160 -0.015669      1.000000
  0.076763 -0.044319 -0.031339      1.000000
  0.115145 -0.066479 -0.047008      1.000000
 -0.076763  0.044319  0.031339      1.000000
 -0.038382  0.022160  0.015669      1.000000
  0.000000  0.044319 -0.015669      1.000000
  0.038382  0.022160 -0.031339      1.000000
  0.076763  0.000000 -0.047008      1.000000
  0.115145 -0.022160 -0.062677      1.000000
 -0.076763  0.088639  0.015669      1.000000
 -0.038382  0.066479 -0.000000      1.000000
  0.000000  0.088639 -0.031339      1.000000
  0.038382  0.066479 -0.047008      1.000000
  0.076763  0.044319 -0.062677      1.000000
  0.115145  0.022160 -0.078346      1.000000
 -0.076763  0.132958  0.000000      1.000000
 -0.038382  0.110798 -0.015669      1.000000
  0.000000  0.132958 -0.047008      1.000000
  0.038382  0.110798 -0.062677      1.000000
  0.076763  0.088639 -0.078346      1.000000
  0.115145  0.066479 -0.094016      1.000000
 -0.076763  0.177278 -0.015669      1.000000
 -0.038382  0.155118 -0.031339      1.000000
 -0.000000 -0.088639  0.031339      1.000000
  0.038382 -0.110798  0.015669      1.000000
  0.076763 -0.132958 -0.000000      1.000000
  0.115145 -0.155118 -0.015669      1.000000
 -0.076763 -0.044319  0.062677      1.000000
 -0.038382 -0.066479  0.047008      1.000000
 -0.000000 -0.044319  0.015669      1.000000
  0.038382 -0.066479 -0.000000      1.000000
  0.076763 -0.088639 -0.015669      1.000000
  0.115145 -0.110798 -0.031339      1.000000
 -0.076763  0.000000  0.047008      1.000000
 -0.038382 -0.022160  0.031339      1.000000
 -0.000000  0.000000  0.047008      1.000000
  0.038382 -0.022160  0.031339      1.000000
  0.076763 -0.044319  0.015669      1.000000
  0.115145 -0.066479  0.000000      1.000000
 -0.076763  0.044319  0.078346      1.000000
 -0.038382  0.022160  0.062677      1.000000
 -0.000000  0.044319  0.031339      1.000000
  0.038382  0.022160  0.015669      1.000000
  0.076763  0.000000  0.000000      1.000000
  0.115145 -0.022160 -0.015669      1.000000
 -0.076763  0.088639  0.062677      1.000000
 -0.038382  0.066479  0.047008      1.000000
 -0.000000  0.088639  0.015669      1.000000
  0.038382  0.066479  0.000000      1.000000
  0.076763  0.044319 -0.015669      1.000000
  0.115145  0.022160 -0.031339      1.000000
 -0.076763  0.132958  0.047008      1.000000
 -0.038382  0.110798  0.031339      1.000000
 -0.000000  0.132958  0.000000      1.000000
  0.038382  0.110798 -0.015669      1.000000
  0.076763  0.088639 -0.031339      1.000000
  0.115145  0.066479 -0.047008      1.000000
 -0.076763  0.177278  0.031339      1.000000
 -0.038382  0.155118  0.015669      1.000000
 -0.000000 -0.088639  0.078346      1.000000
  0.038382 -0.110798  0.062677      1.000000
  0.076763 -0.132958  0.047008      1.000000
  0.115145 -0.155118  0.031339      1.000000
 -0.076763 -0.044319  0.109685      1.000000
 -0.038382 -0.066479  0.094016      1.000000
 -0.000000 -0.044319  0.062677      1.000000
  0.038382 -0.066479  0.047008      1.000000
  0.076763 -0.088639  0.031339      1.000000
  0.115145 -0.110798  0.015669      1.000000
 -0.076763  0.000000  0.094016      1.000000
 -0.038382 -0.022160  0.078346      1.000000
 -0.000000  0.000000  0.094016      1.000000
  0.038382 -0.022160  0.078346      1.000000
  0.076763 -0.044319  0.062677      1.000000
  0.115145 -0.066479  0.047008      1.000000
 -0.076763  0.044319  0.125354      1.000000
 -0.038382  0.022160  0.109685      1.000000
 -0.000000  0.044319  0.078346      1.000000
  0.038382  0.022160  0.062677      1.000000
  0.076763  0.000000  0.047008      1.000000
  0.115145 -0.022160  0.031339      1.000000
 -0.076763  0.088639  0.109685      1.000000
 -0.038382  0.066479  0.094016      1.000000
 -0.000000  0.088639  0.062677      1.000000
  0.038382  0.066479  0.047008      1.000000
  0.076763  0.044319  0.031339      1.000000
  0.115145  0.022160  0.015669      1.000000
 -0.076763  0.132958  0.094016      1.000000
 -0.038382  0.110798  0.078346      1.000000
 -0.000000  0.132958  0.047008      1.000000
  0.038382  0.110798  0.031339      1.000000
  0.076763  0.088639  0.015669      1.000000
  0.115145  0.066479 -0.000000      1.000000
 -0.076763  0.177278  0.078346      1.000000
 -0.038382  0.155118  0.062677      1.000000
 -0.000000 -0.088639  0.125354      1.000000
  0.038382 -0.110798  0.109685      1.000000
  0.076763 -0.132958  0.094016      1.000000
  0.115145 -0.155118  0.078346      1.000000
 -0.076763 -0.044319  0.156693      1.000000
 -0.038382 -0.066479  0.141023      1.000000
 -0.000000 -0.044319  0.109685      1.000000
  0.038382 -0.066479  0.094016      1.000000
  0.076763 -0.088639  0.078346      1.000000
  0.115145 -0.110798  0.062677      1.000000
 -0.076763  0.000000  0.141023      1.000000
 -0.038382 -0.022160  0.125354      1.000000
 -0.000000  0.000000  0.141023      1.000000
  0.038382 -0.022160  0.125354      1.000000
  0.076763 -0.044319  0.109685      1.000000
  0.115145 -0.066479  0.094016      1.000000
 -0.076763  0.044319  0.172362      1.000000
 -0.038382  0.022160  0.156693      1.000000
 -0.000000  0.044319  0.125354      1.000000
  0.038382  0.022160  0.109685      1.000000
  0.076763  0.000000  0.094016      1.000000
  0.115145 -0.022160  0.078346      1.000000
 -0.076763  0.088639  0.156693      1.000000
 -0.038382  0.066479  0.141023      1.000000
 -0.000000  0.088639  0.109685      1.000000
  0.038382  0.066479  0.094016      1.000000
  0.076763  0.044319  0.078346      1.000000
  0.115145  0.022160  0.062677      1.000000
 -0.076763  0.132958  0.141023      1.000000
 -0.038382  0.110798  0.125354      1.000000
 -0.000000  0.132958  0.094016      1.000000
  0.038382  0.110798  0.078346      1.000000
  0.076763  0.088639  0.062677      1.000000
  0.115145  0.066479  0.047008      1.000000
 -0.076763  0.177278  0.125354      1.000000
 -0.038382  0.155118  0.109685      1.000000
 -0.000000 -0.088639  0.172362      1.000000
  0.038382 -0.110798  0.156693      1.000000
  0.076763 -0.132958  0.141023      1.000000
  0.115145 -0.155118  0.125354      1.000000
 -0.076763 -0.044319  0.203700      1.000000
 -0.038382 -0.066479  0.188031      1.000000
 -0.000000 -0.044319  0.156693      1.000000
  0.038382 -0.066479  0.141023      1.000000
  0.076763 -0.088639  0.125354      1.000000
  0.115145 -0.110798  0.109685      1.000000
 -0.076763  0.000000  0.188031      1.000000
 -0.038382 -0.022160  0.172362      1.000000
  0.000000 -0.000000 -0.094016      1.000000
  0.038382 -0.022160 -0.109685      1.000000
  0.076763 -0.044319 -0.125354      1.000000
  0.115145 -0.066479 -0.141023      1.000000
 -0.076763  0.044319 -0.062677      1.000000
 -0.038382  0.022160 -0.078346      1.000000
  0.000000  0.044319 -0.109685      1.000000
  0.038382  0.022160 -0.125354      1.000000
  0.076763  0.000000 -0.141023      1.000000
  0.115145 -0.022160 -0.156693      1.000000
 -0.076763  0.088639 -0.078346      1.000000
 -0.038382  0.066479 -0.094016      1.000000
  0.000000  0.088639 -0.125354      1.000000
  0.038382  0.066479 -0.141023      1.000000
  0.076763  0.044319 -0.156693      1.000000
  0.115145  0.022160 -0.172362      1.000000
 -0.076763  0.132958 -0.094016      1.000000
 -0.038382  0.110798 -0.109685      1.000000
  0.000000  0.132958 -0.141023      1.000000
  0.038382  0.110798 -0.156693      1.000000
  0.076763  0.088639 -0.172362      1.000000
  0.115145  0.066479 -0.188031      1.000000
 -0.076763  0.177278 -0.109685      1.000000
 -0.038382  0.155118 -0.125354      1.000000
  0.000000 -0.088639 -0.062677      1.000000
  0.038382 -0.110798 -0.078346      1.000000
  0.076763 -0.132958 -0.094016      1.000000
  0.115145 -0.155118 -0.109685      1.000000
 -0.076763 -0.044319 -0.031339      1.000000
 -0.038382 -0.066479 -0.047008      1.000000
  0.000000 -0.044319 -0.078346      1.000000
  0.038382 -0.066479 -0.094016      1.000000
  0.076763 -0.088639 -0.109685      1.000000
  0.115145 -0.110798 -0.125354      1.000000
 -0.076763  0.000000 -0.047008      1.000000
 -0.038382 -0.022160 -0.062677      1.000000
  0.000000 -0.000000 -0.047008      1.000000
  0.038382 -0.022160 -0.062677      1.000000
  0.076763 -0.044319 -0.078346      1.000000
  0.115145 -0.066479 -0.094016      1.000000
 -0.076763  0.044319 -0.015669      1.000000
 -0.038382  0.022160 -0.031339      1.000000
  0.000000  0.044319 -0.062677      1.000000
  0.038382  0.022160 -0.078346      1.000000
  0.076763  0.000000 -0.094016      1.000000
  0.115145 -0.022160 -0.109685      1.000000
 -0.076763  0.088639 -0.031339      1.000000
 -0.038382  0.066479 -0.047008      1.000000
  0.000000  0.088639 -0.078346      1.000000
  0.038382  0.066479 -0.094016      1.000000
  0.076763  0.044319 -0.109685      1.000000
  0.115145  0.022160 -0.125354      1.000000
 -0.076763  0.132958 -0.047008      1.000000
 -0.038382  0.110798 -0.062677      1.000000
  0.000000  0.132958 -0.094016      1.000000
  0.038382  0.110798 -0.109685      1.000000
  0.076763  0.088639 -0.125354      1.000000
  0.115145  0.066479 -0.141023      1.000000
 -0.076763  0.177278 -0.062677      1.000000
 -0.038382  0.155118 -0.078346      1.000000
  0.000000 -0.088639 -0.015669      1.000000
  0.038382 -0.110798 -0.031339      1.000000
  0.076763 -0.132958 -0.047008      1.000000
  0.115145 -0.155118 -0.062677      1.000000
 -0.076763 -0.044319  0.015669      1.000000
 -0.038382 -0.066479  0.000000      1.000000
  0.000000 -0.044319 -0.031339      1.000000
  0.038382 -0.066479 -0.047008      1.000000
  0.076763 -0.088639 -0.062677      1.000000
  0.115145 -0.110798 -0.078346      1.000000
 -0.076763  0.000000  0.000000      1.000000
 -0.038382 -0.022160 -0.015669      1.000000
 
 
 Subroutine IBZKPT_HF returns following result:
 ==============================================
 
 Found    216 k-points in 1st BZ
 the following    216 k-points will be used (e.g. in the exchange kernel)
 Following reciprocal coordinates:   # in IRBZ
  0.000000  0.000000  0.000000    0.00462963   1 t-inv F
  0.166667  0.000000  0.000000    0.00462963   2 t-inv F
  0.333333  0.000000  0.000000    0.00462963   3 t-inv F
  0.500000  0.000000  0.000000    0.00462963   4 t-inv F
 -0.333333 -0.000000  0.000000    0.00462963   5 t-inv F
 -0.166667 -0.000000 -0.000000    0.00462963   6 t-inv F
 -0.000000  0.166667 -0.000000    0.00462963   7 t-inv F
  0.166667  0.166667  0.000000    0.00462963   8 t-inv F
  0.333333  0.166667 -0.000000    0.00462963   9 t-inv F
  0.500000  0.166667  0.000000    0.00462963  10 t-inv F
 -0.333333  0.166667 -0.000000    0.00462963  11 t-inv F
 -0.166667  0.166667 -0.000000    0.00462963  12 t-inv F
  0.000000  0.333333 -0.000000    0.00462963  13 t-inv F
  0.166667  0.333333  0.000000    0.00462963  14 t-inv F
  0.333333  0.333333  0.000000    0.00462963  15 t-inv F
  0.500000  0.333333  0.000000    0.00462963  16 t-inv F
 -0.333333  0.333333 -0.000000    0.00462963  17 t-inv F
 -0.166667  0.333333 -0.000000    0.00462963  18 t-inv F
  0.000000  0.500000 -0.000000    0.00462963  19 t-inv F
  0.166667  0.500000  0.000000    0.00462963  20 t-inv F
  0.333333  0.500000  0.000000    0.00462963  21 t-inv F
  0.500000  0.500000  0.000000    0.00462963  22 t-inv F
 -0.333333  0.500000 -0.000000    0.00462963  23 t-inv F
 -0.166667  0.500000 -0.000000    0.00462963  24 t-inv F
 -0.000000 -0.333333  0.000000    0.00462963  25 t-inv F
  0.166667 -0.333333  0.000000    0.00462963  26 t-inv F
  0.333333 -0.333333  0.000000    0.00462963  27 t-inv F
  0.500000 -0.333333  0.000000    0.00462963  28 t-inv F
 -0.333333 -0.333333 -0.000000    0.00462963  29 t-inv F
 -0.166667 -0.333333  0.000000    0.00462963  30 t-inv F
  0.000000 -0.166667  0.000000    0.00462963  31 t-inv F
  0.166667 -0.166667  0.000000    0.00462963  32 t-inv F
  0.333333 -0.166667  0.000000    0.00462963  33 t-inv F
  0.500000 -0.166667  0.000000    0.00462963  34 t-inv F
 -0.333333 -0.166667  0.000000    0.00462963  35 t-inv F
 -0.166667 -0.166667  0.000000    0.00462963  36 t-inv F
  0.000000  0.000000  0.166667    0.00462963  37 t-inv F
  0.166667  0.000000  0.166667    0.00462963  38 t-inv F
  0.333333 -0.000000  0.166667    0.00462963  39 t-inv F
  0.500000 -0.000000  0.166667    0.00462963  40 t-inv F
 -0.333333 -0.000000  0.166667    0.00462963  41 t-inv F
 -0.166667  0.000000  0.166667    0.00462963  42 t-inv F
 -0.000000  0.166667  0.166667    0.00462963  43 t-inv F
  0.166667  0.166667  0.166667    0.00462963  44 t-inv F
  0.333333  0.166667  0.166667    0.00462963  45 t-inv F
  0.500000  0.166667  0.166667    0.00462963  46 t-inv F
 -0.333333  0.166667  0.166667    0.00462963  47 t-inv F
 -0.166667  0.166667  0.166667    0.00462963  48 t-inv F
 -0.000000  0.333333  0.166667    0.00462963  49 t-inv F
  0.166667  0.333333  0.166667    0.00462963  50 t-inv F
  0.333333  0.333333  0.166667    0.00462963  51 t-inv F
  0.500000  0.333333  0.166667    0.00462963  52 t-inv F
 -0.333333  0.333333  0.166667    0.00462963  53 t-inv F
 -0.166667  0.333333  0.166667    0.00462963  54 t-inv F
 -0.000000  0.500000  0.166667    0.00462963  55 t-inv F
  0.166667  0.500000  0.166667    0.00462963  56 t-inv F
  0.333333  0.500000  0.166667    0.00462963  57 t-inv F
  0.500000  0.500000  0.166667    0.00462963  58 t-inv F
 -0.333333  0.500000  0.166667    0.00462963  59 t-inv F
 -0.166667  0.500000  0.166667    0.00462963  60 t-inv F
 -0.000000 -0.333333  0.166667    0.00462963  61 t-inv F
  0.166667 -0.333333  0.166667    0.00462963  62 t-inv F
  0.333333 -0.333333  0.166667    0.00462963  63 t-inv F
  0.500000 -0.333333  0.166667    0.00462963  64 t-inv F
 -0.333333 -0.333333  0.166667    0.00462963  65 t-inv F
 -0.166667 -0.333333  0.166667    0.00462963  66 t-inv F
  0.000000 -0.166667  0.166667    0.00462963  67 t-inv F
  0.166667 -0.166667  0.166667    0.00462963  68 t-inv F
  0.333333 -0.166667  0.166667    0.00462963  69 t-inv F
  0.500000 -0.166667  0.166667    0.00462963  70 t-inv F
 -0.333333 -0.166667  0.166667    0.00462963  71 t-inv F
 -0.166667 -0.166667  0.166667    0.00462963  72 t-inv F
  0.000000  0.000000  0.333333    0.00462963  73 t-inv F
  0.166667  0.000000  0.333333    0.00462963  74 t-inv F
  0.333333  0.000000  0.333333    0.00462963  75 t-inv F
  0.500000 -0.000000  0.333333    0.00462963  76 t-inv F
 -0.333333  0.000000  0.333333    0.00462963  77 t-inv F
 -0.166667  0.000000  0.333333    0.00462963  78 t-inv F
 -0.000000  0.166667  0.333333    0.00462963  79 t-inv F
  0.166667  0.166667  0.333333    0.00462963  80 t-inv F
  0.333333  0.166667  0.333333    0.00462963  81 t-inv F
  0.500000  0.166667  0.333333    0.00462963  82 t-inv F
 -0.333333  0.166667  0.333333    0.00462963  83 t-inv F
 -0.166667  0.166667  0.333333    0.00462963  84 t-inv F
 -0.000000  0.333333  0.333333    0.00462963  85 t-inv F
  0.166667  0.333333  0.333333    0.00462963  86 t-inv F
  0.333333  0.333333  0.333333    0.00462963  87 t-inv F
  0.500000  0.333333  0.333333    0.00462963  88 t-inv F
 -0.333333  0.333333  0.333333    0.00462963  89 t-inv F
 -0.166667  0.333333  0.333333    0.00462963  90 t-inv F
  0.000000  0.500000  0.333333    0.00462963  91 t-inv F
  0.166667  0.500000  0.333333    0.00462963  92 t-inv F
  0.333333  0.500000  0.333333    0.00462963  93 t-inv F
  0.500000  0.500000  0.333333    0.00462963  94 t-inv F
 -0.333333  0.500000  0.333333    0.00462963  95 t-inv F
 -0.166667  0.500000  0.333333    0.00462963  96 t-inv F
  0.000000 -0.333333  0.333333    0.00462963  97 t-inv F
  0.166667 -0.333333  0.333333    0.00462963  98 t-inv F
  0.333333 -0.333333  0.333333    0.00462963  99 t-inv F
  0.500000 -0.333333  0.333333    0.00462963 100 t-inv F
 -0.333333 -0.333333  0.333333    0.00462963 101 t-inv F
 -0.166667 -0.333333  0.333333    0.00462963 102 t-inv F
  0.000000 -0.166667  0.333333    0.00462963 103 t-inv F
  0.166667 -0.166667  0.333333    0.00462963 104 t-inv F
  0.333333 -0.166667  0.333333    0.00462963 105 t-inv F
  0.500000 -0.166667  0.333333    0.00462963 106 t-inv F
 -0.333333 -0.166667  0.333333    0.00462963 107 t-inv F
 -0.166667 -0.166667  0.333333    0.00462963 108 t-inv F
  0.000000  0.000000  0.500000    0.00462963 109 t-inv F
  0.166667  0.000000  0.500000    0.00462963 110 t-inv F
  0.333333  0.000000  0.500000    0.00462963 111 t-inv F
  0.500000 -0.000000  0.500000    0.00462963 112 t-inv F
 -0.333333  0.000000  0.500000    0.00462963 113 t-inv F
 -0.166667  0.000000  0.500000    0.00462963 114 t-inv F
 -0.000000  0.166667  0.500000    0.00462963 115 t-inv F
  0.166667  0.166667  0.500000    0.00462963 116 t-inv F
  0.333333  0.166667  0.500000    0.00462963 117 t-inv F
  0.500000  0.166667  0.500000    0.00462963 118 t-inv F
 -0.333333  0.166667  0.500000    0.00462963 119 t-inv F
 -0.166667  0.166667  0.500000    0.00462963 120 t-inv F
  0.000000  0.333333  0.500000    0.00462963 121 t-inv F
  0.166667  0.333333  0.500000    0.00462963 122 t-inv F
  0.333333  0.333333  0.500000    0.00462963 123 t-inv F
  0.500000  0.333333  0.500000    0.00462963 124 t-inv F
 -0.333333  0.333333  0.500000    0.00462963 125 t-inv F
 -0.166667  0.333333  0.500000    0.00462963 126 t-inv F
 -0.000000  0.500000  0.500000    0.00462963 127 t-inv F
  0.166667  0.500000  0.500000    0.00462963 128 t-inv F
  0.333333  0.500000  0.500000    0.00462963 129 t-inv F
  0.500000  0.500000  0.500000    0.00462963 130 t-inv F
 -0.333333  0.500000  0.500000    0.00462963 131 t-inv F
 -0.166667  0.500000  0.500000    0.00462963 132 t-inv F
  0.000000 -0.333333  0.500000    0.00462963 133 t-inv F
  0.166667 -0.333333  0.500000    0.00462963 134 t-inv F
  0.333333 -0.333333  0.500000    0.00462963 135 t-inv F
  0.500000 -0.333333  0.500000    0.00462963 136 t-inv F
 -0.333333 -0.333333  0.500000    0.00462963 137 t-inv F
 -0.166667 -0.333333  0.500000    0.00462963 138 t-inv F
  0.000000 -0.166667  0.500000    0.00462963 139 t-inv F
  0.166667 -0.166667  0.500000    0.00462963 140 t-inv F
  0.333333 -0.166667  0.500000    0.00462963 141 t-inv F
  0.500000 -0.166667  0.500000    0.00462963 142 t-inv F
 -0.333333 -0.166667  0.500000    0.00462963 143 t-inv F
 -0.166667 -0.166667  0.500000    0.00462963 144 t-inv F
  0.000000  0.000000 -0.333333    0.00462963 145 t-inv F
  0.166667 -0.000000 -0.333333    0.00462963 146 t-inv F
  0.333333 -0.000000 -0.333333    0.00462963 147 t-inv F
  0.500000  0.000000 -0.333333    0.00462963 148 t-inv F
 -0.333333 -0.000000 -0.333333    0.00462963 149 t-inv F
 -0.166667 -0.000000 -0.333333    0.00462963 150 t-inv F
 -0.000000  0.166667 -0.333333    0.00462963 151 t-inv F
  0.166667  0.166667 -0.333333    0.00462963 152 t-inv F
  0.333333  0.166667 -0.333333    0.00462963 153 t-inv F
  0.500000  0.166667 -0.333333    0.00462963 154 t-inv F
 -0.333333  0.166667 -0.333333    0.00462963 155 t-inv F
 -0.166667  0.166667 -0.333333    0.00462963 156 t-inv F
  0.000000  0.333333 -0.333333    0.00462963 157 t-inv F
  0.166667  0.333333 -0.333333    0.00462963 158 t-inv F
  0.333333  0.333333 -0.333333    0.00462963 159 t-inv F
  0.500000  0.333333 -0.333333    0.00462963 160 t-inv F
 -0.333333  0.333333 -0.333333    0.00462963 161 t-inv F
 -0.166667  0.333333 -0.333333    0.00462963 162 t-inv F
 -0.000000  0.500000 -0.333333    0.00462963 163 t-inv F
  0.166667  0.500000 -0.333333    0.00462963 164 t-inv F
  0.333333  0.500000 -0.333333    0.00462963 165 t-inv F
  0.500000  0.500000 -0.333333    0.00462963 166 t-inv F
 -0.333333  0.500000 -0.333333    0.00462963 167 t-inv F
 -0.166667  0.500000 -0.333333    0.00462963 168 t-inv F
  0.000000 -0.333333 -0.333333    0.00462963 169 t-inv F
  0.166667 -0.333333 -0.333333    0.00462963 170 t-inv F
  0.333333 -0.333333 -0.333333    0.00462963 171 t-inv F
  0.500000 -0.333333 -0.333333    0.00462963 172 t-inv F
 -0.333333 -0.333333 -0.333333    0.00462963 173 t-inv F
 -0.166667 -0.333333 -0.333333    0.00462963 174 t-inv F
  0.000000 -0.166667 -0.333333    0.00462963 175 t-inv F
  0.166667 -0.166667 -0.333333    0.00462963 176 t-inv F
  0.333333 -0.166667 -0.333333    0.00462963 177 t-inv F
  0.500000 -0.166667 -0.333333    0.00462963 178 t-inv F
 -0.333333 -0.166667 -0.333333    0.00462963 179 t-inv F
 -0.166667 -0.166667 -0.333333    0.00462963 180 t-inv F
 -0.000000 -0.000000 -0.166667    0.00462963 181 t-inv F
  0.166667 -0.000000 -0.166667    0.00462963 182 t-inv F
  0.333333  0.000000 -0.166667    0.00462963 183 t-inv F
  0.500000  0.000000 -0.166667    0.00462963 184 t-inv F
 -0.333333  0.000000 -0.166667    0.00462963 185 t-inv F
 -0.166667 -0.000000 -0.166667    0.00462963 186 t-inv F
 -0.000000  0.166667 -0.166667    0.00462963 187 t-inv F
  0.166667  0.166667 -0.166667    0.00462963 188 t-inv F
  0.333333  0.166667 -0.166667    0.00462963 189 t-inv F
  0.500000  0.166667 -0.166667    0.00462963 190 t-inv F
 -0.333333  0.166667 -0.166667    0.00462963 191 t-inv F
 -0.166667  0.166667 -0.166667    0.00462963 192 t-inv F
  0.000000  0.333333 -0.166667    0.00462963 193 t-inv F
  0.166667  0.333333 -0.166667    0.00462963 194 t-inv F
  0.333333  0.333333 -0.166667    0.00462963 195 t-inv F
  0.500000  0.333333 -0.166667    0.00462963 196 t-inv F
 -0.333333  0.333333 -0.166667    0.00462963 197 t-inv F
 -0.166667  0.333333 -0.166667    0.00462963 198 t-inv F
 -0.000000  0.500000 -0.166667    0.00462963 199 t-inv F
  0.166667  0.500000 -0.166667    0.00462963 200 t-inv F
  0.333333  0.500000 -0.166667    0.00462963 201 t-inv F
  0.500000  0.500000 -0.166667    0.00462963 202 t-inv F
 -0.333333  0.500000 -0.166667    0.00462963 203 t-inv F
 -0.166667  0.500000 -0.166667    0.00462963 204 t-inv F
  0.000000 -0.333333 -0.166667    0.00462963 205 t-inv F
  0.166667 -0.333333 -0.166667    0.00462963 206 t-inv F
  0.333333 -0.333333 -0.166667    0.00462963 207 t-inv F
  0.500000 -0.333333 -0.166667    0.00462963 208 t-inv F
 -0.333333 -0.333333 -0.166667    0.00462963 209 t-inv F
 -0.166667 -0.333333 -0.166667    0.00462963 210 t-inv F
  0.000000 -0.166667 -0.166667    0.00462963 211 t-inv F
  0.166667 -0.166667 -0.166667    0.00462963 212 t-inv F
  0.333333 -0.166667 -0.166667    0.00462963 213 t-inv F
  0.500000 -0.166667 -0.166667    0.00462963 214 t-inv F
 -0.333333 -0.166667 -0.166667    0.00462963 215 t-inv F
 -0.166667 -0.166667 -0.166667    0.00462963 216 t-inv F


--------------------------------------------------------------------------------------------------------




 Dimension of arrays:
   k-points           NKPTS =    216   k-points in BZ     NKDIM =    216   number of bands    NBANDS=    128
   number of dos      NEDOS =    301   number of ions     NIONS =      1
   non local maximal  LDIM  =      6   non local SUM 2l+1 LMDIM =     18
   total plane-waves  NPLWV =  21952
   max r-space proj   IRMAX =      1   max aug-charges    IRDMAX= 182324
   dimension x,y,z NGX =    28 NGY =   28 NGZ =   28
   dimension x,y,z NGXF=    56 NGYF=   56 NGZF=   56
   support grid    NGXF=   112 NGYF=  112 NGZF=  112
   ions per type =               1
   NGX,Y,Z   is equivalent  to a cutoff of  10.72, 10.72, 10.72 a.u.
   NGXF,Y,Z  is equivalent  to a cutoff of  21.44, 21.44, 21.44 a.u.

 SYSTEM =  Og_FCC                                  
 POSCAR =  Og_FCC                                  

 Startparameter for this run:
   NWRITE =      1    write-flag & timer
   PREC   = accura    normal or accurate (medium, high low for compatibility)
   ISTART =      1    job   : 0-new  1-cont  2-samecut
   ICHARG =      0    charge: 1-file 2-atom 10-const
   ISPIN  =      1    spin polarized calculation?
   LNONCOLLINEAR =      T non collinear calculations
   LSORBIT =      T    spin-orbit coupling
   INIWAV =      1    electr: 0-lowe 1-rand  2-diag
   LASPH  =      F    aspherical Exc in radial PAW
   METAGGA=      F    non-selfconsistent MetaGGA calc.

 Electronic Relaxation 1
   ENCUT  =  400.0 eV  29.40 Ry    5.42 a.u.   7.08  7.08  7.08*2*pi/ulx,y,z
   ENINI  =  400.0     initial cutoff
   ENAUG  =  361.0 eV  augmentation charge cutoff
   NELM   =      1;   NELMIN=  2; NELMDL=  0     # of ELM steps 
   EDIFF  = 0.1E-07   stopping-criterion for ELM
   LREAL  =      F    real-space projection
   NLSPLINE    = F    spline interpolate recip. space projectors
   LCOMPAT=      F    compatible to vasp.4.4
   GGA_COMPAT  = F    GGA compatible to vasp.4.4-vasp.4.6
   LMAXPAW     = -100 max onsite density
   LMAXMIX     =    2 max onsite mixed and CHGCAR
   VOSKOWN=      0    Vosko Wilk Nusair interpolation
   ROPT   =    0.00000
 Ionic relaxation
   EDIFFG = 0.1E-04   stopping-criterion for IOM
   NSW    =      1    number of steps for IOM
   NBLOCK =      1;   KBLOCK =      1    inner block; outer block 
   IBRION =     -1    ionic relax: 0-MD 1-quasi-New 2-CG
   NFREE  =      5    steps in history (QN), initial steepest desc. (CG)
   ISIF   =      3    stress and relaxation
   IWAVPR =     10    prediction:  0-non 1-charg 2-wave 3-comb
   ISYM   =      0    0-nonsym 1-usesym 2-fastsym
   LCORR  =      T    Harris-Foulkes like correction to forces

   POTIM  = 0.1000    time-step for ionic-motion
   TEIN   =    0.0    initial temperature
   TEBEG  =    0.0;   TEEND  =   0.0 temperature during run
   SMASS  =  -3.00    Nose mass-parameter (am)
   estimated Nose-frequenzy (Omega)   =  0.10E-29 period in steps =****** mass=  -0.431E-27a.u.
   SCALEE = 1.0000    scale energy and forces
   NPACO  =    256;   APACO  = 16.0  distance and # of slots for P.C.
   PSTRESS=    0.0 pullay stress

  Mass of Ions in am
   POMASS =   0.01
  Ionic Valenz
   ZVAL   =  18.00
  Atomic Wigner-Seitz radii
   RWIGS  =  -1.00
  virtual crystal weights 
   VCA    =   1.00
   NELECT =      18.0000    total number of electrons
   NUPDOWN=      -1.0000    fix difference up-down

 DOS related values:
   EMIN   =  10.00;   EMAX   =-10.00  energy-range for DOS
   EFERMI =   0.00
   ISMEAR =     0;   SIGMA  =   0.00  broadening in eV -4-tet -1-fermi 0-gaus

 Electronic relaxation 2 (details)
   IALGO  =     38    algorithm
   LDIAG  =      T    sub-space diagonalisation (order eigenvalues)
   LSUBROT=      F    optimize rotation matrix (better conditioning)
   TURBO    =      0    0=normal 1=particle mesh
   IRESTART =      0    0=no restart 2=restart with 2 vectors
   NREBOOT  =      0    no. of reboots
   NMIN     =      0    reboot dimension
   EREF     =   0.00    reference energy to select bands
   IMIX   =      1    mixing-type and parameters
     AMIX     =   0.40;   BMIX     =  1.00
     AMIX_MAG =   1.60;   BMIX_MAG =  1.00
     AMIN     =   0.10
     WC   =   100.;   INIMIX=   1;  MIXPRE=   1;  MAXMIX=  50

 Intra band minimization:
   WEIMIN = 0.0000     energy-eigenvalue tresh-hold
   EBREAK =  0.20E-10  absolut break condition
   DEPER  =   0.30     relativ break condition  

   TIME   =   0.40     timestep for ELM

  volume/ion in A,a.u.               =      57.90       390.71
  Fermi-wavevector in a.u.,A,eV,Ry     =   1.109038  2.095777 16.734680  1.229964
  Thomas-Fermi vector in A             =   2.245572
 
 Write flags
   LWAVE        =      T    write WAVECAR
   LDOWNSAMPLE  =      F    k-point downsampling of WAVECAR
   LCHARG       =      F    write CHGCAR
   LVTOT        =      F    write LOCPOT, total local potential
   LVHAR        =      F    write LOCPOT, Hartree potential only
   LELF         =      F    write electronic localiz. function (ELF)
   LORBIT       =      0    0 simple, 1 ext, 2 COOP (PROOUT), +10 PAW based schemes


 Dipole corrections
   LMONO  =      F    monopole corrections only (constant potential shift)
   LDIPOL =      F    correct potential (dipole corrections)
   IDIPOL =      0    1-x, 2-y, 3-z, 4-all directions 
   EPSILON=  1.0000000 bulk dielectric constant

 Exchange correlation treatment:
   GGA     =    PE    GGA type
   LEXCH   =     8    internal setting for exchange type
   VOSKOWN=      0    Vosko Wilk Nusair interpolation
   EXXOEP  =     0    0=HF, 1=EXX-LHF (local Hartree Fock) 2=EXX OEP
   LHFCALC =     T    Hartree Fock is set to
   LSYMGRAD=     F    symmetrize gradient (conserves proper symmetry)
   PRECFOCK=normal    Normal, Fast or Accurate (Low or Medium for compatibility)
   LRHFCALC=     F    long range Hartree Fock
   LRSCOR  =     F    long range correlation only (use DFT for short range part)
   LTHOMAS =     F    Thomas Fermi screening in HF
   LMODELHF=     F    short range full HF, long range fraction AEXX
   ENCUT4O =  -1.0   cutoff for four orbital integrals eV
   LMAXFOCK=     4    L truncation for augmentation on plane wave grid
   LMAXFOCKAE=   4    L truncation for all-electron charge restoration on plane wave grid
   NMAXFOCKAE=   1    number of basis functions for all-electron charge restoration
   LFOCKAEDFT=     F  apply the AE augmentation even for DFT
   NKREDX  =     1    reduce k-point grid by
   NKREDY  =     1    reduce k-point grid by
   NKREDZ  =     1    reduce k-point grid by
   SHIFTRED=     F    shift reduced grid of Gamma
   HFKIDENT=     F    idential grid for each k-point
   ODDONLY =     F    use only odd q-grid points
   EVENONLY=     F    use only even q-grid points
   HFALPHA =   -1.0000 decay constant for conv. correction
   MCALPHA =    0.0000 extent of test-charge in conv. correction in multipole expansion
   AEXX    =    1.0000 exact exchange contribution
   HFSCREEN=    0.0000 screening length (either q_TF or 0.3 A-1)
   HFSCREENC=   0.0000 screening length for correlation (either q_TF or 0.3 A-1)
   HFRCUT  =    0.0000 spherical cutoff for potential kernel
   ALDAX   =    0.0000 LDA exchange part
   AGGAX   =    0.0000 GGA exchange part
   ALDAC   =    0.0000 LDA correlation
   AGGAC   =    0.0000 GGA correlation
   ENCUTFOCK=  -1.0 apply spherical cutoff to Coloumb kernel
   NBANDSGWLOW=     1    first orbital included in HF term
   NBLOCK_FOCK=    64    blocking factor in FOCK_ACC
 Linear response parameters
   LEPSILON=     F    determine dielectric tensor
   LRPA    =     F    only Hartree local field effects (RPA)
   LNABLA  =     F    use nabla operator in PAW spheres
   LVEL    =     F    velocity operator in full k-point grid
   LINTERFAST=   F  fast interpolation
   KINTER  =     0    interpolate to denser k-point grid
   CSHIFT  =0.1000    complex shift for real part using Kramers Kronig
   OMEGAMAX=  -1.0    maximum frequency
   DEG_THRESHOLD= 0.2000000E-02 threshold for treating states as degnerate
   RTIME   =   -0.100 relaxation time in fs
  (WPLASMAI=    0.000 imaginary part of plasma frequency in eV, 0.658/RTIME)
   DFIELD  = 0.0000000 0.0000000 0.0000000 field for delta impulse in time
 
 Orbital magnetization related:
   ORBITALMAG=     F  switch on orbital magnetization
   LCHIMAG   =     F  perturbation theory with respect to B field
   DQ        =  0.001000  dq finite difference perturbation B field
   LLRAUG    =     F  two centre corrections for induced B field

 Response functions by sum over occupied states:
   ALGO    =QPGW       execute GW part
   LFXC    =     F    include DFT xc kernel in TD-HF and W
   LADDER  =     F    particle hole ladder diagrams for BSE/TD-HF and W (Nano-quanta)
   LRPAFORCE=     F   calculate RPA forces
   LHARTREE=     T    include Hartree terms (bubbles-RPA) in BSE/TD-HF
   IBSE    =     0    BSE modus: 0 exact, 1 time-evolution (store matrix), 10 time-evolution (implicit)
   KPOINT  =    -1   0   0   0    k-point index at which BSE equation is solved (and G at which response is eval.)
   LTRIPLET=     F    triplet instead of singlet excitation (BSE only)
   LRSRPA  =     F    range separated RPA (total - short) in ACFDT
   LTCTE   =     F    use test-charge test-electron dielectric function
   LTETE   =     F    use test-electron test-electron dielectric function
   LFXCEPS =     F    determine f_xc=epsilon-1/Xi Sharma and Gross kernel
   LFXHEG  =     F    model exchange using f_x(G,k_F) from free electron gas
   NATURALO=     2    0 natural orbitals, 1 only virtual, 2 only occupied-virtual rotation
   L2ORDER =     F    2nd order terms only
   LMP2LT   =     F    use LT MP2
   LUSEW   =     F    use screened W from WXXXX.tmp files instead of (screened) HF kernel
   ENCUTGW = 266.7    cutoff for response function in eV
   ENCUTGWSOFT = 266.7 soft cutoff for Coulomb kernel in GW response function in eV
   ENCUTLF =  -1.0    cutoff for local field effects
   LMAXMP2 =    -1    maximum L for one center terms
   SCISSOR =   0.0    scissor correction
   NOMEGA  =    50    number of frequencies
   NOMEGAR =    50    number of frequencies along real axis
   NBANDSGW=    -1    number of bands for which selfenergy shift is calculated
   NBANDSGWLOW=     1 lowest band included in GW (to exclude core correlation)
   NBANDSO =    -1    number of bands for electron-hole treatment (occupied)
   NBANDSV =    -1    number of bands for electron-hole treatment (virtual)
   NELM    =     1    number of iterations in solving QP/BSE equation
   NELMHF  =     1    number of iterations in the inner HF iteration
   DIM     =     3    dimensionality of system (0=0D molecules, 3=3D)
   ANTIRES =     0    antiresonant part (0) no TDA (1) w=0 exact (2) accurate
   OMEGAMAX= -30.0    maximum frequency
   OMEGAMIN= -30.000    minimum frequency
   OMEGATL =-200.0    maximum frequency of tail
   OMEGAGRID=     0    grid type (0 default)
   CSHIFT  =-0.100    complex shift used in evaluation of response functions
   SELFENERGY=   F    calculate selfenergy instead of QP shifts
   LSPECTRAL =   T    use spectral functions                   
   LSPECTRALGW=   F   use spectral functions to calculate int dz G(w-z) W(z) (more accurate)
   LSINGLES  =   F   calculate the singles contribution to the correlation energy
   LFERMIGW  =   F   update Fermi-energy in the Greens function

   ODDONLYGW =   F    avoid all even points for polarizability 
   EVENONLYGW=   F    avoid all odd  points for polarizability 
   NKREDLFX  =   1   NKREDLFY  =   1   NKREDLFZ  =   1

   TELESCOPE =   0   use telescope k-point sampling
   TAUPAR    =   1   number of TAU groups used in imaginary time calculation
   OMEGAPAR  =  -1   number of OMEGA groups used in imaginary frequency calculation



--------------------------------------------------------------------------------------------------------


 Static calculation
 charge density and potential will be updated during run
 non collinear spin polarized calculation
 Variant of blocked Davidson
 Davidson routine will perform the subspace rotation
 perform sub-space diagonalisation
    after iterative eigenvector-optimisation
 Kerker-like  mixing scheme
 using additional bands          119
 reciprocal scheme for non local part
 use partial core corrections
 calculate Harris-corrections to forces 
   (improved forces if not selfconsistent)
 use gradient corrections 
 use of overlap-Matrix (Vanderbilt PP)
 Gauss-broadening in eV      SIGMA  =   0.00


--------------------------------------------------------------------------------------------------------


  energy-cutoff  :      400.00
  volume of cell :       57.90
      direct lattice vectors                 reciprocal lattice vectors
     4.342345876  0.000000000  0.000000000     0.230290269 -0.132958149 -0.094015609
     2.171172938  3.760581840 -0.000000000     0.000000000  0.265916298 -0.094015609
     2.171172938  1.253527280  3.545510561    -0.000000000  0.000000000  0.282046826

  length of vectors
     4.342345876  4.342345876  4.342345876     0.282046826  0.282046826  0.282046826


 
 old parameters found on file WAVECAR:
  energy-cutoff  :      400.00
  volume of cell :       57.90
      direct lattice vectors                 reciprocal lattice vectors
     4.342345876  0.000000000  0.000000000     0.230290269 -0.132958149 -0.094015609
     2.171172938  3.760581840 -0.000000000     0.000000000  0.265916298 -0.094015609
     2.171172938  1.253527280  3.545510561    -0.000000000  0.000000000  0.282046826

  length of vectors

 
 k-points in units of 2pi/SCALE and weight: k-points                                
   0.00000000  0.00000000  0.00000000       0.005
   0.03838171 -0.02215969 -0.01566927       0.005
   0.07676342 -0.04431938 -0.03133854       0.005
   0.11514513 -0.06647907 -0.04700780       0.005
  -0.07676342  0.04431938  0.03133854       0.005
  -0.03838171  0.02215969  0.01566927       0.005
   0.00000000  0.04431938 -0.01566927       0.005
   0.03838171  0.02215969 -0.03133854       0.005
   0.07676342  0.00000000 -0.04700780       0.005
   0.11514513 -0.02215969 -0.06267707       0.005
  -0.07676342  0.08863877  0.01566927       0.005
  -0.03838171  0.06647907 -0.00000000       0.005
   0.00000000  0.08863877 -0.03133854       0.005
   0.03838171  0.06647907 -0.04700780       0.005
   0.07676342  0.04431938 -0.06267707       0.005
   0.11514513  0.02215969 -0.07834634       0.005
  -0.07676342  0.13295815  0.00000000       0.005
  -0.03838171  0.11079846 -0.01566927       0.005
   0.00000000  0.13295815 -0.04700780       0.005
   0.03838171  0.11079846 -0.06267707       0.005
   0.07676342  0.08863877 -0.07834634       0.005
   0.11514513  0.06647907 -0.09401561       0.005
  -0.07676342  0.17727753 -0.01566927       0.005
  -0.03838171  0.15511784 -0.03133854       0.005
  -0.00000000 -0.08863877  0.03133854       0.005
   0.03838171 -0.11079846  0.01566927       0.005
   0.07676342 -0.13295815 -0.00000000       0.005
   0.11514513 -0.15511784 -0.01566927       0.005
  -0.07676342 -0.04431938  0.06267707       0.005
  -0.03838171 -0.06647907  0.04700780       0.005
  -0.00000000 -0.04431938  0.01566927       0.005
   0.03838171 -0.06647907 -0.00000000       0.005
   0.07676342 -0.08863877 -0.01566927       0.005
   0.11514513 -0.11079846 -0.03133854       0.005
  -0.07676342  0.00000000  0.04700780       0.005
  -0.03838171 -0.02215969  0.03133854       0.005
  -0.00000000  0.00000000  0.04700780       0.005
   0.03838171 -0.02215969  0.03133854       0.005
   0.07676342 -0.04431938  0.01566927       0.005
   0.11514513 -0.06647907  0.00000000       0.005
  -0.07676342  0.04431938  0.07834634       0.005
  -0.03838171  0.02215969  0.06267707       0.005
  -0.00000000  0.04431938  0.03133854       0.005
   0.03838171  0.02215969  0.01566927       0.005
   0.07676342  0.00000000  0.00000000       0.005
   0.11514513 -0.02215969 -0.01566927       0.005
  -0.07676342  0.08863877  0.06267707       0.005
  -0.03838171  0.06647907  0.04700780       0.005
  -0.00000000  0.08863877  0.01566927       0.005
   0.03838171  0.06647907  0.00000000       0.005
   0.07676342  0.04431938 -0.01566927       0.005
   0.11514513  0.02215969 -0.03133854       0.005
  -0.07676342  0.13295815  0.04700780       0.005
  -0.03838171  0.11079846  0.03133854       0.005
  -0.00000000  0.13295815  0.00000000       0.005
   0.03838171  0.11079846 -0.01566927       0.005
   0.07676342  0.08863877 -0.03133854       0.005
   0.11514513  0.06647907 -0.04700780       0.005
  -0.07676342  0.17727753  0.03133854       0.005
  -0.03838171  0.15511784  0.01566927       0.005
  -0.00000000 -0.08863877  0.07834634       0.005
   0.03838171 -0.11079846  0.06267707       0.005
   0.07676342 -0.13295815  0.04700780       0.005
   0.11514513 -0.15511784  0.03133854       0.005
  -0.07676342 -0.04431938  0.10968488       0.005
  -0.03838171 -0.06647907  0.09401561       0.005
  -0.00000000 -0.04431938  0.06267707       0.005
   0.03838171 -0.06647907  0.04700780       0.005
   0.07676342 -0.08863877  0.03133854       0.005
   0.11514513 -0.11079846  0.01566927       0.005
  -0.07676342  0.00000000  0.09401561       0.005
  -0.03838171 -0.02215969  0.07834634       0.005
  -0.00000000  0.00000000  0.09401561       0.005
   0.03838171 -0.02215969  0.07834634       0.005
   0.07676342 -0.04431938  0.06267707       0.005
   0.11514513 -0.06647907  0.04700780       0.005
  -0.07676342  0.04431938  0.12535414       0.005
  -0.03838171  0.02215969  0.10968488       0.005
  -0.00000000  0.04431938  0.07834634       0.005
   0.03838171  0.02215969  0.06267707       0.005
   0.07676342  0.00000000  0.04700780       0.005
   0.11514513 -0.02215969  0.03133854       0.005
  -0.07676342  0.08863877  0.10968488       0.005
  -0.03838171  0.06647907  0.09401561       0.005
  -0.00000000  0.08863877  0.06267707       0.005
   0.03838171  0.06647907  0.04700780       0.005
   0.07676342  0.04431938  0.03133854       0.005
   0.11514513  0.02215969  0.01566927       0.005
  -0.07676342  0.13295815  0.09401561       0.005
  -0.03838171  0.11079846  0.07834634       0.005
  -0.00000000  0.13295815  0.04700780       0.005
   0.03838171  0.11079846  0.03133854       0.005
   0.07676342  0.08863877  0.01566927       0.005
   0.11514513  0.06647907 -0.00000000       0.005
  -0.07676342  0.17727753  0.07834634       0.005
  -0.03838171  0.15511784  0.06267707       0.005
  -0.00000000 -0.08863877  0.12535414       0.005
   0.03838171 -0.11079846  0.10968488       0.005
   0.07676342 -0.13295815  0.09401561       0.005
   0.11514513 -0.15511784  0.07834634       0.005
  -0.07676342 -0.04431938  0.15669268       0.005
  -0.03838171 -0.06647907  0.14102341       0.005
  -0.00000000 -0.04431938  0.10968488       0.005
   0.03838171 -0.06647907  0.09401561       0.005
   0.07676342 -0.08863877  0.07834634       0.005
   0.11514513 -0.11079846  0.06267707       0.005
  -0.07676342  0.00000000  0.14102341       0.005
  -0.03838171 -0.02215969  0.12535414       0.005
  -0.00000000  0.00000000  0.14102341       0.005
   0.03838171 -0.02215969  0.12535414       0.005
   0.07676342 -0.04431938  0.10968488       0.005
   0.11514513 -0.06647907  0.09401561       0.005
  -0.07676342  0.04431938  0.17236195       0.005
  -0.03838171  0.02215969  0.15669268       0.005
  -0.00000000  0.04431938  0.12535414       0.005
   0.03838171  0.02215969  0.10968488       0.005
   0.07676342  0.00000000  0.09401561       0.005
   0.11514513 -0.02215969  0.07834634       0.005
  -0.07676342  0.08863877  0.15669268       0.005
  -0.03838171  0.06647907  0.14102341       0.005
  -0.00000000  0.08863877  0.10968488       0.005
   0.03838171  0.06647907  0.09401561       0.005
   0.07676342  0.04431938  0.07834634       0.005
   0.11514513  0.02215969  0.06267707       0.005
  -0.07676342  0.13295815  0.14102341       0.005
  -0.03838171  0.11079846  0.12535414       0.005
  -0.00000000  0.13295815  0.09401561       0.005
   0.03838171  0.11079846  0.07834634       0.005
   0.07676342  0.08863877  0.06267707       0.005
   0.11514513  0.06647907  0.04700780       0.005
  -0.07676342  0.17727753  0.12535414       0.005
  -0.03838171  0.15511784  0.10968488       0.005
  -0.00000000 -0.08863877  0.17236195       0.005
   0.03838171 -0.11079846  0.15669268       0.005
   0.07676342 -0.13295815  0.14102341       0.005
   0.11514513 -0.15511784  0.12535414       0.005
  -0.07676342 -0.04431938  0.20370049       0.005
  -0.03838171 -0.06647907  0.18803122       0.005
  -0.00000000 -0.04431938  0.15669268       0.005
   0.03838171 -0.06647907  0.14102341       0.005
   0.07676342 -0.08863877  0.12535414       0.005
   0.11514513 -0.11079846  0.10968488       0.005
  -0.07676342  0.00000000  0.18803122       0.005
  -0.03838171 -0.02215969  0.17236195       0.005
   0.00000000 -0.00000000 -0.09401561       0.005
   0.03838171 -0.02215969 -0.10968488       0.005
   0.07676342 -0.04431938 -0.12535414       0.005
   0.11514513 -0.06647907 -0.14102341       0.005
  -0.07676342  0.04431938 -0.06267707       0.005
  -0.03838171  0.02215969 -0.07834634       0.005
   0.00000000  0.04431938 -0.10968488       0.005
   0.03838171  0.02215969 -0.12535414       0.005
   0.07676342  0.00000000 -0.14102341       0.005
   0.11514513 -0.02215969 -0.15669268       0.005
  -0.07676342  0.08863877 -0.07834634       0.005
  -0.03838171  0.06647907 -0.09401561       0.005
   0.00000000  0.08863877 -0.12535414       0.005
   0.03838171  0.06647907 -0.14102341       0.005
   0.07676342  0.04431938 -0.15669268       0.005
   0.11514513  0.02215969 -0.17236195       0.005
  -0.07676342  0.13295815 -0.09401561       0.005
  -0.03838171  0.11079846 -0.10968488       0.005
   0.00000000  0.13295815 -0.14102341       0.005
   0.03838171  0.11079846 -0.15669268       0.005
   0.07676342  0.08863877 -0.17236195       0.005
   0.11514513  0.06647907 -0.18803122       0.005
  -0.07676342  0.17727753 -0.10968488       0.005
  -0.03838171  0.15511784 -0.12535414       0.005
   0.00000000 -0.08863877 -0.06267707       0.005
   0.03838171 -0.11079846 -0.07834634       0.005
   0.07676342 -0.13295815 -0.09401561       0.005
   0.11514513 -0.15511784 -0.10968488       0.005
  -0.07676342 -0.04431938 -0.03133854       0.005
  -0.03838171 -0.06647907 -0.04700780       0.005
   0.00000000 -0.04431938 -0.07834634       0.005
   0.03838171 -0.06647907 -0.09401561       0.005
   0.07676342 -0.08863877 -0.10968488       0.005
   0.11514513 -0.11079846 -0.12535414       0.005
  -0.07676342  0.00000000 -0.04700780       0.005
  -0.03838171 -0.02215969 -0.06267707       0.005
   0.00000000 -0.00000000 -0.04700780       0.005
   0.03838171 -0.02215969 -0.06267707       0.005
   0.07676342 -0.04431938 -0.07834634       0.005
   0.11514513 -0.06647907 -0.09401561       0.005
  -0.07676342  0.04431938 -0.01566927       0.005
  -0.03838171  0.02215969 -0.03133854       0.005
   0.00000000  0.04431938 -0.06267707       0.005
   0.03838171  0.02215969 -0.07834634       0.005
   0.07676342  0.00000000 -0.09401561       0.005
   0.11514513 -0.02215969 -0.10968488       0.005
  -0.07676342  0.08863877 -0.03133854       0.005
  -0.03838171  0.06647907 -0.04700780       0.005
   0.00000000  0.08863877 -0.07834634       0.005
   0.03838171  0.06647907 -0.09401561       0.005
   0.07676342  0.04431938 -0.10968488       0.005
   0.11514513  0.02215969 -0.12535414       0.005
  -0.07676342  0.13295815 -0.04700780       0.005
  -0.03838171  0.11079846 -0.06267707       0.005
   0.00000000  0.13295815 -0.09401561       0.005
   0.03838171  0.11079846 -0.10968488       0.005
   0.07676342  0.08863877 -0.12535414       0.005
   0.11514513  0.06647907 -0.14102341       0.005
  -0.07676342  0.17727753 -0.06267707       0.005
  -0.03838171  0.15511784 -0.07834634       0.005
   0.00000000 -0.08863877 -0.01566927       0.005
   0.03838171 -0.11079846 -0.03133854       0.005
   0.07676342 -0.13295815 -0.04700780       0.005
   0.11514513 -0.15511784 -0.06267707       0.005
  -0.07676342 -0.04431938  0.01566927       0.005
  -0.03838171 -0.06647907  0.00000000       0.005
   0.00000000 -0.04431938 -0.03133854       0.005
   0.03838171 -0.06647907 -0.04700780       0.005
   0.07676342 -0.08863877 -0.06267707       0.005
   0.11514513 -0.11079846 -0.07834634       0.005
  -0.07676342  0.00000000  0.00000000       0.005
  -0.03838171 -0.02215969 -0.01566927       0.005
 
 k-points in reciprocal lattice and weights: k-points                                
   0.00000000  0.00000000  0.00000000       0.005
   0.16666667  0.00000000  0.00000000       0.005
   0.33333333  0.00000000  0.00000000       0.005
   0.50000000  0.00000000  0.00000000       0.005
  -0.33333333 -0.00000000  0.00000000       0.005
  -0.16666667 -0.00000000 -0.00000000       0.005
  -0.00000000  0.16666667 -0.00000000       0.005
   0.16666667  0.16666667  0.00000000       0.005
   0.33333333  0.16666667 -0.00000000       0.005
   0.50000000  0.16666667  0.00000000       0.005
  -0.33333333  0.16666667 -0.00000000       0.005
  -0.16666667  0.16666667 -0.00000000       0.005
   0.00000000  0.33333333 -0.00000000       0.005
   0.16666667  0.33333333  0.00000000       0.005
   0.33333333  0.33333333  0.00000000       0.005
   0.50000000  0.33333333  0.00000000       0.005
  -0.33333333  0.33333333 -0.00000000       0.005
  -0.16666667  0.33333333 -0.00000000       0.005
   0.00000000  0.50000000 -0.00000000       0.005
   0.16666667  0.50000000  0.00000000       0.005
   0.33333333  0.50000000  0.00000000       0.005
   0.50000000  0.50000000  0.00000000       0.005
  -0.33333333  0.50000000 -0.00000000       0.005
  -0.16666667  0.50000000 -0.00000000       0.005
  -0.00000000 -0.33333333  0.00000000       0.005
   0.16666667 -0.33333333  0.00000000       0.005
   0.33333333 -0.33333333  0.00000000       0.005
   0.50000000 -0.33333333  0.00000000       0.005
  -0.33333333 -0.33333333 -0.00000000       0.005
  -0.16666667 -0.33333333  0.00000000       0.005
   0.00000000 -0.16666667  0.00000000       0.005
   0.16666667 -0.16666667  0.00000000       0.005
   0.33333333 -0.16666667  0.00000000       0.005
   0.50000000 -0.16666667  0.00000000       0.005
  -0.33333333 -0.16666667  0.00000000       0.005
  -0.16666667 -0.16666667  0.00000000       0.005
   0.00000000  0.00000000  0.16666667       0.005
   0.16666667  0.00000000  0.16666667       0.005
   0.33333333 -0.00000000  0.16666667       0.005
   0.50000000 -0.00000000  0.16666667       0.005
  -0.33333333 -0.00000000  0.16666667       0.005
  -0.16666667  0.00000000  0.16666667       0.005
  -0.00000000  0.16666667  0.16666667       0.005
   0.16666667  0.16666667  0.16666667       0.005
   0.33333333  0.16666667  0.16666667       0.005
   0.50000000  0.16666667  0.16666667       0.005
  -0.33333333  0.16666667  0.16666667       0.005
  -0.16666667  0.16666667  0.16666667       0.005
  -0.00000000  0.33333333  0.16666667       0.005
   0.16666667  0.33333333  0.16666667       0.005
   0.33333333  0.33333333  0.16666667       0.005
   0.50000000  0.33333333  0.16666667       0.005
  -0.33333333  0.33333333  0.16666667       0.005
  -0.16666667  0.33333333  0.16666667       0.005
  -0.00000000  0.50000000  0.16666667       0.005
   0.16666667  0.50000000  0.16666667       0.005
   0.33333333  0.50000000  0.16666667       0.005
   0.50000000  0.50000000  0.16666667       0.005
  -0.33333333  0.50000000  0.16666667       0.005
  -0.16666667  0.50000000  0.16666667       0.005
  -0.00000000 -0.33333333  0.16666667       0.005
   0.16666667 -0.33333333  0.16666667       0.005
   0.33333333 -0.33333333  0.16666667       0.005
   0.50000000 -0.33333333  0.16666667       0.005
  -0.33333333 -0.33333333  0.16666667       0.005
  -0.16666667 -0.33333333  0.16666667       0.005
   0.00000000 -0.16666667  0.16666667       0.005
   0.16666667 -0.16666667  0.16666667       0.005
   0.33333333 -0.16666667  0.16666667       0.005
   0.50000000 -0.16666667  0.16666667       0.005
  -0.33333333 -0.16666667  0.16666667       0.005
  -0.16666667 -0.16666667  0.16666667       0.005
   0.00000000  0.00000000  0.33333333       0.005
   0.16666667  0.00000000  0.33333333       0.005
   0.33333333  0.00000000  0.33333333       0.005
   0.50000000 -0.00000000  0.33333333       0.005
  -0.33333333  0.00000000  0.33333333       0.005
  -0.16666667  0.00000000  0.33333333       0.005
  -0.00000000  0.16666667  0.33333333       0.005
   0.16666667  0.16666667  0.33333333       0.005
   0.33333333  0.16666667  0.33333333       0.005
   0.50000000  0.16666667  0.33333333       0.005
  -0.33333333  0.16666667  0.33333333       0.005
  -0.16666667  0.16666667  0.33333333       0.005
  -0.00000000  0.33333333  0.33333333       0.005
   0.16666667  0.33333333  0.33333333       0.005
   0.33333333  0.33333333  0.33333333       0.005
   0.50000000  0.33333333  0.33333333       0.005
  -0.33333333  0.33333333  0.33333333       0.005
  -0.16666667  0.33333333  0.33333333       0.005
   0.00000000  0.50000000  0.33333333       0.005
   0.16666667  0.50000000  0.33333333       0.005
   0.33333333  0.50000000  0.33333333       0.005
   0.50000000  0.50000000  0.33333333       0.005
  -0.33333333  0.50000000  0.33333333       0.005
  -0.16666667  0.50000000  0.33333333       0.005
   0.00000000 -0.33333333  0.33333333       0.005
   0.16666667 -0.33333333  0.33333333       0.005
   0.33333333 -0.33333333  0.33333333       0.005
   0.50000000 -0.33333333  0.33333333       0.005
  -0.33333333 -0.33333333  0.33333333       0.005
  -0.16666667 -0.33333333  0.33333333       0.005
   0.00000000 -0.16666667  0.33333333       0.005
   0.16666667 -0.16666667  0.33333333       0.005
   0.33333333 -0.16666667  0.33333333       0.005
   0.50000000 -0.16666667  0.33333333       0.005
  -0.33333333 -0.16666667  0.33333333       0.005
  -0.16666667 -0.16666667  0.33333333       0.005
   0.00000000  0.00000000  0.50000000       0.005
   0.16666667  0.00000000  0.50000000       0.005
   0.33333333  0.00000000  0.50000000       0.005
   0.50000000 -0.00000000  0.50000000       0.005
  -0.33333333  0.00000000  0.50000000       0.005
  -0.16666667  0.00000000  0.50000000       0.005
  -0.00000000  0.16666667  0.50000000       0.005
   0.16666667  0.16666667  0.50000000       0.005
   0.33333333  0.16666667  0.50000000       0.005
   0.50000000  0.16666667  0.50000000       0.005
  -0.33333333  0.16666667  0.50000000       0.005
  -0.16666667  0.16666667  0.50000000       0.005
   0.00000000  0.33333333  0.50000000       0.005
   0.16666667  0.33333333  0.50000000       0.005
   0.33333333  0.33333333  0.50000000       0.005
   0.50000000  0.33333333  0.50000000       0.005
  -0.33333333  0.33333333  0.50000000       0.005
  -0.16666667  0.33333333  0.50000000       0.005
  -0.00000000  0.50000000  0.50000000       0.005
   0.16666667  0.50000000  0.50000000       0.005
   0.33333333  0.50000000  0.50000000       0.005
   0.50000000  0.50000000  0.50000000       0.005
  -0.33333333  0.50000000  0.50000000       0.005
  -0.16666667  0.50000000  0.50000000       0.005
   0.00000000 -0.33333333  0.50000000       0.005
   0.16666667 -0.33333333  0.50000000       0.005
   0.33333333 -0.33333333  0.50000000       0.005
   0.50000000 -0.33333333  0.50000000       0.005
  -0.33333333 -0.33333333  0.50000000       0.005
  -0.16666667 -0.33333333  0.50000000       0.005
   0.00000000 -0.16666667  0.50000000       0.005
   0.16666667 -0.16666667  0.50000000       0.005
   0.33333333 -0.16666667  0.50000000       0.005
   0.50000000 -0.16666667  0.50000000       0.005
  -0.33333333 -0.16666667  0.50000000       0.005
  -0.16666667 -0.16666667  0.50000000       0.005
   0.00000000  0.00000000 -0.33333333       0.005
   0.16666667 -0.00000000 -0.33333333       0.005
   0.33333333 -0.00000000 -0.33333333       0.005
   0.50000000  0.00000000 -0.33333333       0.005
  -0.33333333 -0.00000000 -0.33333333       0.005
  -0.16666667 -0.00000000 -0.33333333       0.005
  -0.00000000  0.16666667 -0.33333333       0.005
   0.16666667  0.16666667 -0.33333333       0.005
   0.33333333  0.16666667 -0.33333333       0.005
   0.50000000  0.16666667 -0.33333333       0.005
  -0.33333333  0.16666667 -0.33333333       0.005
  -0.16666667  0.16666667 -0.33333333       0.005
   0.00000000  0.33333333 -0.33333333       0.005
   0.16666667  0.33333333 -0.33333333       0.005
   0.33333333  0.33333333 -0.33333333       0.005
   0.50000000  0.33333333 -0.33333333       0.005
  -0.33333333  0.33333333 -0.33333333       0.005
  -0.16666667  0.33333333 -0.33333333       0.005
  -0.00000000  0.50000000 -0.33333333       0.005
   0.16666667  0.50000000 -0.33333333       0.005
   0.33333333  0.50000000 -0.33333333       0.005
   0.50000000  0.50000000 -0.33333333       0.005
  -0.33333333  0.50000000 -0.33333333       0.005
  -0.16666667  0.50000000 -0.33333333       0.005
   0.00000000 -0.33333333 -0.33333333       0.005
   0.16666667 -0.33333333 -0.33333333       0.005
   0.33333333 -0.33333333 -0.33333333       0.005
   0.50000000 -0.33333333 -0.33333333       0.005
  -0.33333333 -0.33333333 -0.33333333       0.005
  -0.16666667 -0.33333333 -0.33333333       0.005
   0.00000000 -0.16666667 -0.33333333       0.005
   0.16666667 -0.16666667 -0.33333333       0.005
   0.33333333 -0.16666667 -0.33333333       0.005
   0.50000000 -0.16666667 -0.33333333       0.005
  -0.33333333 -0.16666667 -0.33333333       0.005
  -0.16666667 -0.16666667 -0.33333333       0.005
  -0.00000000 -0.00000000 -0.16666667       0.005
   0.16666667 -0.00000000 -0.16666667       0.005
   0.33333333  0.00000000 -0.16666667       0.005
   0.50000000  0.00000000 -0.16666667       0.005
  -0.33333333  0.00000000 -0.16666667       0.005
  -0.16666667 -0.00000000 -0.16666667       0.005
  -0.00000000  0.16666667 -0.16666667       0.005
   0.16666667  0.16666667 -0.16666667       0.005
   0.33333333  0.16666667 -0.16666667       0.005
   0.50000000  0.16666667 -0.16666667       0.005
  -0.33333333  0.16666667 -0.16666667       0.005
  -0.16666667  0.16666667 -0.16666667       0.005
   0.00000000  0.33333333 -0.16666667       0.005
   0.16666667  0.33333333 -0.16666667       0.005
   0.33333333  0.33333333 -0.16666667       0.005
   0.50000000  0.33333333 -0.16666667       0.005
  -0.33333333  0.33333333 -0.16666667       0.005
  -0.16666667  0.33333333 -0.16666667       0.005
  -0.00000000  0.50000000 -0.16666667       0.005
   0.16666667  0.50000000 -0.16666667       0.005
   0.33333333  0.50000000 -0.16666667       0.005
   0.50000000  0.50000000 -0.16666667       0.005
  -0.33333333  0.50000000 -0.16666667       0.005
  -0.16666667  0.50000000 -0.16666667       0.005
   0.00000000 -0.33333333 -0.16666667       0.005
   0.16666667 -0.33333333 -0.16666667       0.005
   0.33333333 -0.33333333 -0.16666667       0.005
   0.50000000 -0.33333333 -0.16666667       0.005
  -0.33333333 -0.33333333 -0.16666667       0.005
  -0.16666667 -0.33333333 -0.16666667       0.005
   0.00000000 -0.16666667 -0.16666667       0.005
   0.16666667 -0.16666667 -0.16666667       0.005
   0.33333333 -0.16666667 -0.16666667       0.005
   0.50000000 -0.16666667 -0.16666667       0.005
  -0.33333333 -0.16666667 -0.16666667       0.005
  -0.16666667 -0.16666667 -0.16666667       0.005
 
 position of ions in fractional coordinates (direct lattice) 
   0.00000000  0.00000000  0.00000000
 
 position of ions in cartesian coordinates  (Angst):
   0.00000000  0.00000000  0.00000000
 
 Euler angles ALPHA=     0.0000000  BETA=     0.0000000

 transformation matrix from SAXIS to cartesian coordinates
 ---------------------------------------------------------
     1.0000000 m_x     0.0000000 m_y     0.0000000 m_z
     0.0000000 m_x     1.0000000 m_y     0.0000000 m_z
     0.0000000 m_x     0.0000000 m_y     1.0000000 m_z

 transformation matrix from cartesian coordinates to SAXIS
 ---------------------------------------------------------
     1.0000000 m_x     0.0000000 m_y     0.0000000 m_z
     0.0000000 m_x     1.0000000 m_y     0.0000000 m_z
     0.0000000 m_x     0.0000000 m_y     1.0000000 m_z




--------------------------------------------------------------------------------------------------------


 k-point  1 :   0.0000 0.0000 0.0000  plane waves:    2134
 k-point  2 :   0.1667 0.0000 0.0000  plane waves:    2086
 k-point  3 :   0.3333 0.0000 0.0000  plane waves:    2118
 k-point  4 :   0.5000 0.0000 0.0000  plane waves:    2112
 k-point  5 :  -0.3333-0.0000 0.0000  plane waves:    2118
 k-point  6 :  -0.1667-0.0000-0.0000  plane waves:    2086
 k-point  7 :  -0.0000 0.1667-0.0000  plane waves:    2086
 k-point  8 :   0.1667 0.1667 0.0000  plane waves:    2084
 k-point  9 :   0.3333 0.1667-0.0000  plane waves:    2088
 k-point 10 :   0.5000 0.1667 0.0000  plane waves:    2102
 k-point 11 :  -0.3333 0.1667-0.0000  plane waves:    2102
 k-point 12 :  -0.1667 0.1667-0.0000  plane waves:    2106
 k-point 13 :   0.0000 0.3333-0.0000  plane waves:    2118
 k-point 14 :   0.1667 0.3333 0.0000  plane waves:    2088
 k-point 15 :   0.3333 0.3333 0.0000  plane waves:    2060
 k-point 16 :   0.5000 0.3333 0.0000  plane waves:    2112
 k-point 17 :  -0.3333 0.3333-0.0000  plane waves:    2126
 k-point 18 :  -0.1667 0.3333-0.0000  plane waves:    2102
 k-point 19 :   0.0000 0.5000-0.0000  plane waves:    2112
 k-point 20 :   0.1667 0.5000 0.0000  plane waves:    2102
 k-point 21 :   0.3333 0.5000 0.0000  plane waves:    2112
 k-point 22 :   0.5000 0.5000 0.0000  plane waves:    2068
 k-point 23 :  -0.3333 0.5000-0.0000  plane waves:    2112
 k-point 24 :  -0.1667 0.5000-0.0000  plane waves:    2102
 k-point 25 :  -0.0000-0.3333 0.0000  plane waves:    2118
 k-point 26 :   0.1667-0.3333 0.0000  plane waves:    2102
 k-point 27 :   0.3333-0.3333 0.0000  plane waves:    2126
 k-point 28 :   0.5000-0.3333 0.0000  plane waves:    2112
 k-point 29 :  -0.3333-0.3333-0.0000  plane waves:    2060
 k-point 30 :  -0.1667-0.3333 0.0000  plane waves:    2088
 k-point 31 :   0.0000-0.1667 0.0000  plane waves:    2086
 k-point 32 :   0.1667-0.1667 0.0000  plane waves:    2106
 k-point 33 :   0.3333-0.1667 0.0000  plane waves:    2102
 k-point 34 :   0.5000-0.1667 0.0000  plane waves:    2102
 k-point 35 :  -0.3333-0.1667 0.0000  plane waves:    2088
 k-point 36 :  -0.1667-0.1667 0.0000  plane waves:    2084
 k-point 37 :   0.0000 0.0000 0.1667  plane waves:    2086
 k-point 38 :   0.1667 0.0000 0.1667  plane waves:    2084
 k-point 39 :   0.3333-0.0000 0.1667  plane waves:    2088
 k-point 40 :   0.5000-0.0000 0.1667  plane waves:    2102
 k-point 41 :  -0.3333-0.0000 0.1667  plane waves:    2102
 k-point 42 :  -0.1667 0.0000 0.1667  plane waves:    2106
 k-point 43 :  -0.0000 0.1667 0.1667  plane waves:    2084
 k-point 44 :   0.1667 0.1667 0.1667  plane waves:    2086
 k-point 45 :   0.3333 0.1667 0.1667  plane waves:    2106
 k-point 46 :   0.5000 0.1667 0.1667  plane waves:    2102
 k-point 47 :  -0.3333 0.1667 0.1667  plane waves:    2102
 k-point 48 :  -0.1667 0.1667 0.1667  plane waves:    2088
 k-point 49 :  -0.0000 0.3333 0.1667  plane waves:    2088
 k-point 50 :   0.1667 0.3333 0.1667  plane waves:    2106
 k-point 51 :   0.3333 0.3333 0.1667  plane waves:    2088
 k-point 52 :   0.5000 0.3333 0.1667  plane waves:    2104
 k-point 53 :  -0.3333 0.3333 0.1667  plane waves:    2108
 k-point 54 :  -0.1667 0.3333 0.1667  plane waves:    2104
 k-point 55 :  -0.0000 0.5000 0.1667  plane waves:    2102
 k-point 56 :   0.1667 0.5000 0.1667  plane waves:    2102
 k-point 57 :   0.3333 0.5000 0.1667  plane waves:    2104
 k-point 58 :   0.5000 0.5000 0.1667  plane waves:    2112
 k-point 59 :  -0.3333 0.5000 0.1667  plane waves:    2128
 k-point 60 :  -0.1667 0.5000 0.1667  plane waves:    2108
 k-point 61 :  -0.0000-0.3333 0.1667  plane waves:    2102
 k-point 62 :   0.1667-0.3333 0.1667  plane waves:    2102
 k-point 63 :   0.3333-0.3333 0.1667  plane waves:    2108
 k-point 64 :   0.5000-0.3333 0.1667  plane waves:    2128
 k-point 65 :  -0.3333-0.3333 0.1667  plane waves:    2112
 k-point 66 :  -0.1667-0.3333 0.1667  plane waves:    2104
 k-point 67 :   0.0000-0.1667 0.1667  plane waves:    2106
 k-point 68 :   0.1667-0.1667 0.1667  plane waves:    2088
 k-point 69 :   0.3333-0.1667 0.1667  plane waves:    2104
 k-point 70 :   0.5000-0.1667 0.1667  plane waves:    2108
 k-point 71 :  -0.3333-0.1667 0.1667  plane waves:    2104
 k-point 72 :  -0.1667-0.1667 0.1667  plane waves:    2088
 k-point 73 :   0.0000 0.0000 0.3333  plane waves:    2118
 k-point 74 :   0.1667 0.0000 0.3333  plane waves:    2088
 k-point 75 :   0.3333 0.0000 0.3333  plane waves:    2060
 k-point 76 :   0.5000-0.0000 0.3333  plane waves:    2112
 k-point 77 :  -0.3333 0.0000 0.3333  plane waves:    2126
 k-point 78 :  -0.1667 0.0000 0.3333  plane waves:    2102
 k-point 79 :  -0.0000 0.1667 0.3333  plane waves:    2088
 k-point 80 :   0.1667 0.1667 0.3333  plane waves:    2106
 k-point 81 :   0.3333 0.1667 0.3333  plane waves:    2088
 k-point 82 :   0.5000 0.1667 0.3333  plane waves:    2104
 k-point 83 :  -0.3333 0.1667 0.3333  plane waves:    2108
 k-point 84 :  -0.1667 0.1667 0.3333  plane waves:    2104
 k-point 85 :  -0.0000 0.3333 0.3333  plane waves:    2060
 k-point 86 :   0.1667 0.3333 0.3333  plane waves:    2088
 k-point 87 :   0.3333 0.3333 0.3333  plane waves:    2118
 k-point 88 :   0.5000 0.3333 0.3333  plane waves:    2102
 k-point 89 :  -0.3333 0.3333 0.3333  plane waves:    2126
 k-point 90 :  -0.1667 0.3333 0.3333  plane waves:    2112
 k-point 91 :   0.0000 0.5000 0.3333  plane waves:    2112
 k-point 92 :   0.1667 0.5000 0.3333  plane waves:    2104
 k-point 93 :   0.3333 0.5000 0.3333  plane waves:    2102
 k-point 94 :   0.5000 0.5000 0.3333  plane waves:    2102
 k-point 95 :  -0.3333 0.5000 0.3333  plane waves:    2108
 k-point 96 :  -0.1667 0.5000 0.3333  plane waves:    2128
 k-point 97 :   0.0000-0.3333 0.3333  plane waves:    2126
 k-point 98 :   0.1667-0.3333 0.3333  plane waves:    2108
 k-point 99 :   0.3333-0.3333 0.3333  plane waves:    2126
[...]
   KRAMKRO:  cpu time    0.1396: real time    0.1396
   TWOEINT:  cpu time    0.6787: real time    0.6787
   KRAMKRO:  cpu time    0.0776: real time    0.0777
   TWOEINT:  cpu time    0.9299: real time    0.9299
   KRAMKRO:  cpu time    0.0767: real time    0.0767
   TWOEINT:  cpu time    0.6233: real time    0.6233
   KRAMKRO:  cpu time    0.0745: real time    0.0745
   TWOEINT:  cpu time    0.9814: real time    0.9814
   KRAMKRO:  cpu time    0.0745: real time    0.0745
   TWOEINT:  cpu time    0.6236: real time    0.6237
   KRAMKRO:  cpu time    0.0787: real time    0.0787
   TWOEINT:  cpu time    1.0305: real time    1.0306
   KRAMKRO:  cpu time    0.1166: real time    0.1166
   TWOEINT:  cpu time    0.6230: real time    0.6230
   KRAMKRO:  cpu time    0.0871: real time    0.0871
   TWOEINT:  cpu time    1.0725: real time    1.0725
   KRAMKRO:  cpu time    0.0772: real time    0.0772
   TWOEINT:  cpu time    0.6230: real time    0.6231
   KRAMKRO:  cpu time    0.0755: real time    0.0755
   TWOEINT:  cpu time    1.0779: real time    1.0780
   KRAMKRO:  cpu time    0.0876: real time    0.0876
   TWOEINT:  cpu time    0.6148: real time    0.6148
   KRAMKRO:  cpu time    0.0951: real time    0.0951
   TWOEINT:  cpu time    1.0509: real time    1.0510
   KRAMKRO:  cpu time    0.1400: real time    0.1400
   TWOEINT:  cpu time    0.6278: real time    0.6278
   KRAMKRO:  cpu time    0.0676: real time    0.0676
   TWOEINT:  cpu time    1.1310: real time    1.1311
   KRAMKRO:  cpu time    0.0942: real time    0.0942
   TWOEINT:  cpu time    0.6298: real time    0.6298
   KRAMKRO:  cpu time    0.0762: real time    0.0762
   TWOEINT:  cpu time    1.2243: real time    1.2244
   KRAMKRO:  cpu time    0.0725: real time    0.0725
   TWOEINT:  cpu time    0.6737: real time    0.6738
   KRAMKRO:  cpu time    0.0812: real time    0.0812
   TWOEINT:  cpu time    1.3201: real time    1.3447
   KRAMKRO:  cpu time    0.1542: real time    0.1542
   TWOEINT:  cpu time    0.6981: real time    0.6981
   KRAMKRO:  cpu time    0.0794: real time    0.0794
   TWOEINT:  cpu time    1.3715: real time    1.3716
   KRAMKRO:  cpu time    0.1356: real time    0.1356
   TWOEINT:  cpu time    0.6630: real time    0.6631
   KRAMKRO:  cpu time    0.0735: real time    0.0735
   TWOEINT:  cpu time    1.4936: real time    1.4937
   KRAMKRO:  cpu time    0.1227: real time    0.1227
   TWOEINT:  cpu time    0.6384: real time    0.6384
   KRAMKRO:  cpu time    0.1151: real time    0.1151
   TWOEINT:  cpu time    1.6734: real time    1.6735
   KRAMKRO:  cpu time    0.1621: real time    0.1621
   TWOEINT:  cpu time    0.6689: real time    0.6689
   KRAMKRO:  cpu time    0.0836: real time    0.0836
   TWOEINT:  cpu time    2.0184: real time    2.0185
   KRAMKRO:  cpu time    0.1501: real time    0.1501
   TWOEINT:  cpu time    0.7438: real time    0.7439
   KRAMKRO:  cpu time    0.0851: real time    0.0851
   TWOEINT:  cpu time    2.2456: real time    2.2458
   KRAMKRO:  cpu time    0.1418: real time    0.1418
   TWOEINT:  cpu time    0.7097: real time    0.7098
   KRAMKRO:  cpu time    0.0676: real time    0.0676
   TWOEINT:  cpu time    2.5102: real time    2.5104
   KRAMKRO:  cpu time    0.1404: real time    0.1404
   TWOEINT:  cpu time    0.6863: real time    0.6864
   KRAMKRO:  cpu time    0.0894: real time    0.0894
   TWOEINT:  cpu time    2.6847: real time    2.6849
   KRAMKRO:  cpu time    0.1403: real time    0.1403
   TWOEINT:  cpu time    0.6963: real time    0.6964
   KRAMKRO:  cpu time    0.1683: real time    0.1683
   TWOEINT:  cpu time    3.0106: real time    3.0108
   KRAMKRO:  cpu time    0.1393: real time    0.1393
   TWOEINT:  cpu time    0.6199: real time    0.6200
   KRAMKRO:  cpu time    0.0957: real time    0.0957
   TWOEINT:  cpu time    3.3733: real time    3.3735
   KRAMKRO:  cpu time    0.1579: real time    0.1579
   TWOEINT:  cpu time    0.6214: real time    0.6215
   KRAMKRO:  cpu time    0.1670: real time    0.1670
   TWOEINT:  cpu time    3.8444: real time    3.8446
   KRAMKRO:  cpu time    0.1679: real time    0.1679
   TWOEINT:  cpu time    0.6209: real time    0.6209
   KRAMKRO:  cpu time    0.0863: real time    0.0863
   TWOEINT:  cpu time    2.8274: real time    2.8276
   KRAMKRO:  cpu time    0.1291: real time    0.1291
   TWOEINT:  cpu time    0.6267: real time    0.6268
   KRAMKRO:  cpu time    0.0934: real time    0.0934
   TWOEINT:  cpu time    0.9957: real time    0.9958
   KRAMKRO:  cpu time    0.0779: real time    0.0779
   TWOEINT:  cpu time    0.6202: real time    0.6203
        GW:  cpu time  122.8166: real time  122.9116
 
 performed     540740000 updates of chi_q(r,r)
 total number of BLAS operations  1413635.04 Gflops


--------------------------------------------------------------------------------------------------------


NQ= 191   -0.3333    0.1667   -0.1667, 
       CHI:  cpu time    0.1744: real time    0.1744
   KRAMKRO:  cpu time    0.0252: real time    0.0252
       CHI:  cpu time    0.1719: real time    0.1719
   KRAMKRO:  cpu time    0.0303: real time    0.0303
       CHI:  cpu time    0.1728: real time    0.1728
   KRAMKRO:  cpu time    0.0266: real time    0.0266
       CHI:  cpu time    0.1709: real time    0.1709
   KRAMKRO:  cpu time    0.0298: real time    0.0298
       CHI:  cpu time    0.1724: real time    0.1724
   KRAMKRO:  cpu time    0.0287: real time    0.0287
       CHI:  cpu time    0.1720: real time    0.1720
   KRAMKRO:  cpu time    0.0294: real time    0.0294
       CHI:  cpu time    0.1712: real time    0.1712
   KRAMKRO:  cpu time    0.0309: real time    0.0309
       CHI:  cpu time    0.1755: real time    0.1755
   KRAMKRO:  cpu time    0.0247: real time    0.0247
       CHI:  cpu time    0.1754: real time    0.1755
   KRAMKRO:  cpu time    0.0290: real time    0.0290
       CHI:  cpu time    0.1756: real time    0.1756
   KRAMKRO:  cpu time    0.0264: real time    0.0264
       CHI:  cpu time    0.1748: real time    0.1748
   KRAMKRO:  cpu time    0.0277: real time    0.0277
       CHI:  cpu time    0.1787: real time    0.1788
   KRAMKRO:  cpu time    0.0410: real time    0.0410
       CHI:  cpu time    0.1803: real time    0.1803
   KRAMKRO:  cpu time    0.0291: real time    0.0291
       CHI:  cpu time    0.1785: real time    0.1785
   KRAMKRO:  cpu time    0.0356: real time    0.0356
       CHI:  cpu time    0.1810: real time    0.1811
   KRAMKRO:  cpu time    0.0297: real time    0.0297
       CHI:  cpu time    0.1801: real time    0.1801
   KRAMKRO:  cpu time    0.0299: real time    0.0299
       CHI:  cpu time    0.1753: real time    0.1753
   KRAMKRO:  cpu time    0.0377: real time    0.0377
       CHI:  cpu time    0.1755: real time    0.1755
   KRAMKRO:  cpu time    0.0363: real time    0.0363
       CHI:  cpu time    0.1822: real time    0.1822
   KRAMKRO:  cpu time    0.0243: real time    0.0243
       CHI:  cpu time    0.1828: real time    0.1828
   KRAMKRO:  cpu time    0.0214: real time    0.0214
       CHI:  cpu time    0.1793: real time    0.1793
   KRAMKRO:  cpu time    0.0276: real time    0.0276
       CHI:  cpu time    0.1802: real time    0.1802
   KRAMKRO:  cpu time    0.0277: real time    0.0277
       CHI:  cpu time    0.1806: real time    0.1806
   KRAMKRO:  cpu time    0.0526: real time    0.0526
       CHI:  cpu time    0.1806: real time    0.1806
   KRAMKRO:  cpu time    0.0584: real time    0.0584
       CHI:  cpu time    0.1820: real time    0.1820
   KRAMKRO:  cpu time    0.0340: real time    0.0340
       CHI:  cpu time    0.1802: real time    0.1802
   KRAMKRO:  cpu time    0.0355: real time    0.0355
       CHI:  cpu time    0.1858: real time    0.1858
   KRAMKRO:  cpu time    0.0273: real time    0.0273
       CHI:  cpu time    0.1950: real time    0.1951
   KRAMKRO:  cpu time    0.0693: real time    0.0693
       CHI:  cpu time    0.2451: real time    0.2452
   KRAMKRO:  cpu time    0.1888: real time    0.1888
       CHI:  cpu time    0.2554: real time    0.2554
   KRAMKRO:  cpu time    0.0839: real time    0.0839
       CHI:  cpu time    0.2656: real time    0.2657
   KRAMKRO:  cpu time    0.0884: real time    0.0884
       CHI:  cpu time    0.2084: real time    0.2084
   KRAMKRO:  cpu time    0.0519: real time    0.0519
       CHI:  cpu time    0.2107: real time    0.2107
   KRAMKRO:  cpu time    0.0461: real time    0.0461
       CHI:  cpu time    0.2164: real time    0.2164
   KRAMKRO:  cpu time    0.0341: real time    0.0341
       CHI:  cpu time    0.2152: real time    0.2152
   KRAMKRO:  cpu time    0.0295: real time    0.0295
       CHI:  cpu time    0.2101: real time    0.2101
   KRAMKRO:  cpu time    0.0402: real time    0.0402
       CHI:  cpu time    0.2139: real time    0.2139
   KRAMKRO:  cpu time    0.0272: real time    0.0272
       CHI:  cpu time    0.2255: real time    0.2255
   KRAMKRO:  cpu time    0.0289: real time    0.0289
       CHI:  cpu time    0.2306: real time    0.2306
   KRAMKRO:  cpu time    0.0323: real time    0.0323
       CHI:  cpu time    0.2441: real time    0.2441
   KRAMKRO:  cpu time    0.0390: real time    0.0390
       CHI:  cpu time    0.2687: real time    0.2687
   KRAMKRO:  cpu time    0.0338: real time    0.0338
       CHI:  cpu time    0.2982: real time    0.2982
   KRAMKRO:  cpu time    0.0280: real time    0.0280
       CHI:  cpu time    0.3348: real time    0.3348
   KRAMKRO:  cpu time    0.0312: real time    0.0312
       CHI:  cpu time    0.4214: real time    0.4215
   KRAMKRO:  cpu time    0.0420: real time    0.0420
       CHI:  cpu time    0.5989: real time    0.5989
   KRAMKRO:  cpu time    0.0407: real time    0.0407
       CHI:  cpu time    0.8721: real time    0.8722
   KRAMKRO:  cpu time    0.0539: real time    0.0539
       CHI:  cpu time    1.1552: real time    1.1553
   KRAMKRO:  cpu time    0.0710: real time    0.0710
       CHI:  cpu time    1.4742: real time    1.4742
   KRAMKRO:  cpu time    0.0828: real time    0.0828
       CHI:  cpu time    1.0934: real time    1.0935
   KRAMKRO:  cpu time    0.0477: real time    0.0477
       CHI:  cpu time    0.3253: real time    0.3254
   KRAMKRO:  cpu time    0.0400: real time    0.0400
    LFIELD:  cpu time    0.0001: real time    0.0001
  XI_LOCAL:  cpu time    0.1039: real time    0.1039
  XI_RED_T:  cpu time    0.0022: real time    0.0022
   XI_TO_W:  cpu time    0.0049: real time    0.0049
   KRAMKRO:  cpu time    0.0195: real time    0.0204
   TWOEINT:  cpu time    0.8544: real time    0.8545
   KRAMKRO:  cpu time    0.0743: real time    0.0743
   TWOEINT:  cpu time    0.8449: real time    0.8450
   KRAMKRO:  cpu time    0.0659: real time    0.0659
   TWOEINT:  cpu time    0.9130: real time    0.9370
   KRAMKRO:  cpu time    0.1432: real time    0.1432
   TWOEINT:  cpu time    0.9046: real time    0.9047
   KRAMKRO:  cpu time    0.1305: real time    0.1305
   TWOEINT:  cpu time    0.7956: real time    0.7956
   KRAMKRO:  cpu time    0.1511: real time    0.1511
   TWOEINT:  cpu time    0.7623: real time    0.7624
   KRAMKRO:  cpu time    0.0701: real time    0.0701
   TWOEINT:  cpu time    0.7841: real time    0.7842
   KRAMKRO:  cpu time    0.0891: real time    0.0891
   TWOEINT:  cpu time    0.7446: real time    0.7446
   KRAMKRO:  cpu time    0.1197: real time    0.1197
   TWOEINT:  cpu time    0.7898: real time    0.7898
   KRAMKRO:  cpu time    0.1238: real time    0.1238
   TWOEINT:  cpu time    0.7246: real time    0.7246
   KRAMKRO:  cpu time    0.2147: real time    0.2148
   TWOEINT:  cpu time    0.7953: real time    0.7953
   KRAMKRO:  cpu time    0.0850: real time    0.0850
   TWOEINT:  cpu time    0.7137: real time    0.7137
   KRAMKRO:  cpu time    0.1929: real time    0.1929
   TWOEINT:  cpu time    0.7750: real time    0.7750
   KRAMKRO:  cpu time    0.0934: real time    0.0934
   TWOEINT:  cpu time    0.7009: real time    0.7010
   KRAMKRO:  cpu time    0.1223: real time    0.1223
   TWOEINT:  cpu time    0.8034: real time    0.8034
   KRAMKRO:  cpu time    0.0498: real time    0.0498
   TWOEINT:  cpu time    0.7005: real time    0.7006
   KRAMKRO:  cpu time    0.0776: real time    0.0776
   TWOEINT:  cpu time    0.7982: real time    0.7983
   KRAMKRO:  cpu time    0.0708: real time    0.0708
   TWOEINT:  cpu time    0.7053: real time    0.7053
   KRAMKRO:  cpu time    0.0891: real time    0.0891
   TWOEINT:  cpu time    0.8054: real time    0.8054
   KRAMKRO:  cpu time    0.1236: real time    0.1236
   TWOEINT:  cpu time    0.6913: real time    0.6913
   KRAMKRO:  cpu time    0.1021: real time    0.1021
   TWOEINT:  cpu time    0.8133: real time    0.8134
   KRAMKRO:  cpu time    0.0756: real time    0.0756
   TWOEINT:  cpu time    0.6898: real time    0.6899
   KRAMKRO:  cpu time    0.1585: real time    0.1585
   TWOEINT:  cpu time    0.8300: real time    0.8301
   KRAMKRO:  cpu time    0.0451: real time    0.0451
   TWOEINT:  cpu time    0.6830: real time    0.6830
   KRAMKRO:  cpu time    0.0920: real time    0.0920
   TWOEINT:  cpu time    0.8398: real time    0.8399
   KRAMKRO:  cpu time    0.0537: real time    0.0537
   TWOEINT:  cpu time    0.6806: real time    0.6806
   KRAMKRO:  cpu time    0.0681: real time    0.0681
   TWOEINT:  cpu time    0.9463: real time    0.9463
   KRAMKRO:  cpu time    0.1015: real time    0.1015
   TWOEINT:  cpu time    0.7906: real time    0.7907
   KRAMKRO:  cpu time    0.0939: real time    0.0939
   TWOEINT:  cpu time    0.9334: real time    0.9335
   KRAMKRO:  cpu time    0.1083: real time    0.1083
   TWOEINT:  cpu time    0.7881: real time    0.7882
   KRAMKRO:  cpu time    0.1083: real time    0.1083
   TWOEINT:  cpu time    0.8204: real time    0.8204
   KRAMKRO:  cpu time    0.0891: real time    0.0891
   TWOEINT:  cpu time    0.6715: real time    0.6716
   KRAMKRO:  cpu time    0.0633: real time    0.0633
   TWOEINT:  cpu time    0.7991: real time    0.7992
   KRAMKRO:  cpu time    0.1318: real time    0.1318
   TWOEINT:  cpu time    0.6484: real time    0.6484
   KRAMKRO:  cpu time    0.1019: real time    0.1019
   TWOEINT:  cpu time    0.8206: real time    0.8207
   KRAMKRO:  cpu time    0.0952: real time    0.0952
   TWOEINT:  cpu time    0.6725: real time    0.6725
   KRAMKRO:  cpu time    0.0727: real time    0.0727
   TWOEINT:  cpu time    0.8544: real time    0.8545
   KRAMKRO:  cpu time    0.0738: real time    0.0738
   TWOEINT:  cpu time    0.6773: real time    0.6982
   KRAMKRO:  cpu time    0.1266: real time    0.1266
   TWOEINT:  cpu time    0.8251: real time    0.8251
   KRAMKRO:  cpu time    0.1104: real time    0.1104
   TWOEINT:  cpu time    0.6586: real time    0.6587
   KRAMKRO:  cpu time    0.0785: real time    0.0785
   TWOEINT:  cpu time    0.8426: real time    0.8427
   KRAMKRO:  cpu time    0.0899: real time    0.0899
   TWOEINT:  cpu time    0.6601: real time    0.6601
   KRAMKRO:  cpu time    0.0832: real time    0.0832
   TWOEINT:  cpu time    0.8811: real time    0.8811
   KRAMKRO:  cpu time    0.0603: real time    0.0603
   TWOEINT:  cpu time    0.6592: real time    0.6593
   KRAMKRO:  cpu time    0.0600: real time    0.0600
   TWOEINT:  cpu time    0.8506: real time    0.8507
   KRAMKRO:  cpu time    0.1073: real time    0.1073
   TWOEINT:  cpu time    0.6433: real time    0.6433
   KRAMKRO:  cpu time    0.0748: real time    0.0748
   TWOEINT:  cpu time    0.8492: real time    0.8492
   KRAMKRO:  cpu time    0.1004: real time    0.1004
   TWOEINT:  cpu time    0.6379: real time    0.6380
   KRAMKRO:  cpu time    0.0721: real time    0.0721
   TWOEINT:  cpu time    0.8628: real time    0.8629
   KRAMKRO:  cpu time    0.0692: real time    0.0692
   TWOEINT:  cpu time    0.6359: real time    0.6359
   KRAMKRO:  cpu time    0.0561: real time    0.0561
   TWOEINT:  cpu time    0.8518: real time    0.8519
   KRAMKRO:  cpu time    0.1062: real time    0.1062
   TWOEINT:  cpu time    0.6298: real time    0.6299
   KRAMKRO:  cpu time    0.0721: real time    0.0721
   TWOEINT:  cpu time    0.8928: real time    0.8928
   KRAMKRO:  cpu time    0.1101: real time    0.1101
   TWOEINT:  cpu time    0.6357: real time    0.6357
   KRAMKRO:  cpu time    0.0733: real time    0.0733
   TWOEINT:  cpu time    0.9119: real time    0.9119
   KRAMKRO:  cpu time    0.1007: real time    0.1007
   TWOEINT:  cpu time    0.6769: real time    0.6770
   KRAMKRO:  cpu time    0.0713: real time    0.0713
   TWOEINT:  cpu time    0.9241: real time    0.9242
   KRAMKRO:  cpu time    0.1322: real time    0.1323
   TWOEINT:  cpu time    0.6691: real time    0.6691
   KRAMKRO:  cpu time    0.1456: real time    0.1456
   TWOEINT:  cpu time    0.9230: real time    0.9231
   KRAMKRO:  cpu time    0.1078: real time    0.1078
   TWOEINT:  cpu time    0.6129: real time    0.6130
   KRAMKRO:  cpu time    0.1884: real time    0.1884
   TWOEINT:  cpu time    0.9705: real time    0.9706
   KRAMKRO:  cpu time    0.0756: real time    0.0756
   TWOEINT:  cpu time    0.6228: real time    0.6229
   KRAMKRO:  cpu time    0.0903: real time    0.0904
   TWOEINT:  cpu time    1.0409: real time    1.0410
   KRAMKRO:  cpu time    0.0675: real time    0.0675
   TWOEINT:  cpu time    0.6223: real time    0.6223
   KRAMKRO:  cpu time    0.0708: real time    0.0708
   TWOEINT:  cpu time    1.0644: real time    1.0644
   KRAMKRO:  cpu time    0.1012: real time    0.1012
   TWOEINT:  cpu time    0.6331: real time    0.6332
   KRAMKRO:  cpu time    0.0677: real time    0.0678
   TWOEINT:  cpu time    1.0480: real time    1.0480
   KRAMKRO:  cpu time    0.1276: real time    0.1276
   TWOEINT:  cpu time    0.6241: real time    0.6241
   KRAMKRO:  cpu time    0.0703: real time    0.0704
   TWOEINT:  cpu time    1.0649: real time    1.0649
   KRAMKRO:  cpu time    0.1055: real time    0.1055
   TWOEINT:  cpu time    0.6197: real time    0.6197
   KRAMKRO:  cpu time    0.0844: real time    0.0844
   TWOEINT:  cpu time    1.1652: real time    1.1653
   KRAMKRO:  cpu time    0.0925: real time    0.0925
   TWOEINT:  cpu time    0.6387: real time    0.6388
   KRAMKRO:  cpu time    0.1525: real time    0.1525
   TWOEINT:  cpu time    1.2089: real time    1.2090
   KRAMKRO:  cpu time    0.0780: real time    0.0780
   TWOEINT:  cpu time    0.6709: real time    0.6711
   KRAMKRO:  cpu time    0.1457: real time    0.1457
   TWOEINT:  cpu time    1.3283: real time    1.3284
   KRAMKRO:  cpu time    0.0981: real time    0.0981
   TWOEINT:  cpu time    0.6927: real time    0.6927
   KRAMKRO:  cpu time    0.0628: real time    0.0628
   TWOEINT:  cpu time    1.3643: real time    1.3644
   KRAMKRO:  cpu time    0.1228: real time    0.1229
   TWOEINT:  cpu time    0.6539: real time    0.6540
   KRAMKRO:  cpu time    0.0735: real time    0.0735
   TWOEINT:  cpu time    1.4816: real time    1.4816
   KRAMKRO:  cpu time    0.1291: real time    0.1291
   TWOEINT:  cpu time    0.6486: real time    0.6486
   KRAMKRO:  cpu time    0.0766: real time    0.0766
   TWOEINT:  cpu time    1.6896: real time    1.6897
   KRAMKRO:  cpu time    0.1072: real time    0.1072
   TWOEINT:  cpu time    0.6654: real time    0.6654
   KRAMKRO:  cpu time    0.0679: real time    0.0679
   TWOEINT:  cpu time    1.9213: real time    1.9214
   KRAMKRO:  cpu time    0.1561: real time    0.1561
   TWOEINT:  cpu time    0.7372: real time    0.7373
   KRAMKRO:  cpu time    0.0828: real time    0.0828
   TWOEINT:  cpu time    2.2406: real time    2.2407
   KRAMKRO:  cpu time    0.1257: real time    0.1257
   TWOEINT:  cpu time    0.7039: real time    0.7042
   KRAMKRO:  cpu time    0.0818: real time    0.0818
   TWOEINT:  cpu time    2.4389: real time    2.4390
   KRAMKRO:  cpu time    0.1140: real time    0.1140
   TWOEINT:  cpu time    0.6801: real time    0.6801
   KRAMKRO:  cpu time    0.0785: real time    0.0785
   TWOEINT:  cpu time    2.5787: real time    2.5789
   KRAMKRO:  cpu time    0.1924: real time    0.1924
   TWOEINT:  cpu time    0.6816: real time    0.6816
   KRAMKRO:  cpu time    0.0720: real time    0.0720
