   1   1   0   0
  0.4557239E+02  0.4009334E-09  0.4009334E-09  0.4009334E-09  0.1000000E-15
  1.000000000000000E-004
  CAR 
 Og_FCC                                  
     17.42721394    -21.16812130  301     -3.99319712      1.00000000
    -21.168  0.0000E+00  0.0000E+00
    -21.039  0.0000E+00  0.0000E+00
    -20.911  0.0000E+00  0.0000E+00
    -20.782  0.0000E+00  0.0000E+00
    -20.654  0.0000E+00  0.0000E+00
    -20.525  0.0000E+00  0.0000E+00
    -20.396  0.0000E+00  0.0000E+00
    -20.268  0.0000E+00  0.0000E+00
    -20.139  0.0000E+00  0.0000E+00
    -20.010  0.0000E+00  0.0000E+00
    -19.882  0.0000E+00  0.0000E+00
    -19.753  0.0000E+00  0.0000E+00
    -19.624  0.0000E+00  0.0000E+00
    -19.496  0.0000E+00  0.0000E+00
    -19.367  0.5707E+00  0.8268E-01
    -19.238  0.0000E+00  0.5463E+00
    -19.110  0.0000E+00  0.2000E+01
    -18.981  0.0000E+00  0.2000E+01
    -18.852  0.0000E+00  0.2000E+01
    -18.724  0.0000E+00  0.2000E+01
    -18.595  0.0000E+00  0.2000E+01
    -18.466  0.0000E+00  0.2000E+01
    -18.338  0.0000E+00  0.2000E+01
    -18.209  0.0000E+00  0.2000E+01
    -18.080  0.0000E+00  0.2000E+01
    -17.952  0.0000E+00  0.2000E+01
    -17.823  0.0000E+00  0.2000E+01
    -17.695  0.0000E+00  0.2000E+01
    -17.566  0.0000E+00  0.2000E+01
    -17.437  0.0000E+00  0.2000E+01
    -17.309  0.0000E+00  0.2000E+01
    -17.180  0.0000E+00  0.2000E+01
    -17.051  0.0000E+00  0.2000E+01
    -16.923  0.0000E+00  0.2000E+01
    -16.794  0.0000E+00  0.2000E+01
    -16.665  0.0000E+00  0.2000E+01
    -16.537  0.0000E+00  0.2000E+01
    -16.408  0.0000E+00  0.2000E+01
    -16.279  0.0000E+00  0.2000E+01
    -16.151  0.0000E+00  0.2000E+01
    -16.022  0.0000E+00  0.2000E+01
    -15.893  0.0000E+00  0.2000E+01
    -15.765  0.0000E+00  0.2000E+01
    -15.636  0.0000E+00  0.2000E+01
    -15.507  0.0000E+00  0.2000E+01
    -15.379  0.0000E+00  0.2000E+01
    -15.250  0.0000E+00  0.2000E+01
    -15.122  0.0000E+00  0.2000E+01
    -14.993  0.0000E+00  0.2000E+01
    -14.864  0.0000E+00  0.2000E+01
    -14.736  0.0000E+00  0.2000E+01
    -14.607  0.0000E+00  0.2000E+01
    -14.478  0.0000E+00  0.2000E+01
    -14.350  0.0000E+00  0.2000E+01
    -14.221  0.0000E+00  0.2000E+01
    -14.092  0.0000E+00  0.2000E+01
    -13.964  0.0000E+00  0.2000E+01
    -13.835  0.0000E+00  0.2000E+01
    -13.706  0.0000E+00  0.2000E+01
    -13.578  0.0000E+00  0.2000E+01
    -13.449  0.0000E+00  0.2000E+01
    -13.320  0.0000E+00  0.2000E+01
    -13.192  0.0000E+00  0.2000E+01
    -13.063  0.0000E+00  0.2000E+01
    -12.934  0.0000E+00  0.2000E+01
    -12.806  0.0000E+00  0.2000E+01
    -12.677  0.0000E+00  0.2000E+01
    -12.548  0.0000E+00  0.2000E+01
    -12.420  0.0000E+00  0.2000E+01
    -12.291  0.0000E+00  0.2000E+01
    -12.163  0.0000E+00  0.2000E+01
    -12.034  0.0000E+00  0.2000E+01
    -11.905  0.0000E+00  0.2000E+01
    -11.777  0.0000E+00  0.2000E+01
    -11.648  0.0000E+00  0.2000E+01
    -11.519  0.0000E+00  0.2000E+01
    -11.391  0.0000E+00  0.2000E+01
    -11.262  0.0000E+00  0.2000E+01
    -11.133  0.0000E+00  0.2000E+01
    -11.005  0.0000E+00  0.2000E+01
    -10.876  0.0000E+00  0.2000E+01
    -10.747  0.0000E+00  0.2000E+01
    -10.619  0.0000E+00  0.2000E+01
    -10.490  0.0000E+00  0.2000E+01
    -10.361  0.0000E+00  0.2000E+01
    -10.233  0.0000E+00  0.2000E+01
    -10.104  0.0000E+00  0.2000E+01
     -9.975  0.0000E+00  0.2000E+01
     -9.847  0.0000E+00  0.2000E+01
     -9.718  0.0000E+00  0.2000E+01
     -9.590  0.0000E+00  0.2000E+01
     -9.461  0.0000E+00  0.2000E+01
     -9.332  0.0000E+00  0.2000E+01
     -9.204  0.0000E+00  0.2000E+01
     -9.075  0.0000E+00  0.2000E+01
     -8.946  0.0000E+00  0.2000E+01
     -8.818  0.0000E+00  0.2000E+01
     -8.689  0.0000E+00  0.2000E+01
     -8.560  0.0000E+00  0.2000E+01
     -8.432  0.0000E+00  0.2000E+01
     -8.303  0.0000E+00  0.2000E+01
     -8.174  0.0000E+00  0.2000E+01
     -8.046  0.0000E+00  0.2000E+01
     -7.917  0.0000E+00  0.2000E+01
     -7.788  0.0000E+00  0.2000E+01
     -7.660  0.0000E+00  0.2000E+01
     -7.531  0.0000E+00  0.2000E+01
     -7.402  0.0000E+00  0.2000E+01
     -7.274  0.0000E+00  0.2000E+01
     -7.145  0.0000E+00  0.2000E+01
     -7.016  0.0000E+00  0.2000E+01
     -6.888  0.0000E+00  0.2000E+01
     -6.759  0.0000E+00  0.2000E+01
     -6.631  0.0000E+00  0.2000E+01
     -6.502  0.0000E+00  0.2000E+01
     -6.373  0.0000E+00  0.2000E+01
     -6.245  0.0000E+00  0.2000E+01
     -6.116  0.0000E+00  0.2000E+01
     -5.987  0.0000E+00  0.2000E+01
     -5.859  0.0000E+00  0.2000E+01
     -5.730  0.0000E+00  0.2037E+01
     -5.601  0.1726E+01  0.2731E+01
     -5.473  0.0000E+00  0.3528E+01
     -5.344  0.0000E+00  0.3750E+01
     -5.215  0.0000E+00  0.3861E+01
     -5.087  0.0000E+00  0.3861E+01
     -4.958  0.4035E-02  0.4362E+01
     -4.829  0.0000E+00  0.4907E+01
     -4.701  0.0000E+00  0.5417E+01
     -4.572  0.0000E+00  0.5787E+01
     -4.443  0.0000E+00  0.6778E+01
     -4.315  0.0000E+00  0.7333E+01
     -4.186  0.4305E-05  0.7778E+01
     -4.058  0.0000E+00  0.7981E+01
     -3.929  0.0000E+00  0.8000E+01
     -3.800  0.0000E+00  0.8000E+01
     -3.672  0.0000E+00  0.8000E+01
     -3.543  0.0000E+00  0.8000E+01
     -3.414  0.0000E+00  0.8000E+01
     -3.286  0.0000E+00  0.8000E+01
     -3.157  0.0000E+00  0.8000E+01
     -3.028  0.0000E+00  0.8000E+01
     -2.900  0.0000E+00  0.8000E+01
     -2.771  0.0000E+00  0.8000E+01
     -2.642  0.0000E+00  0.8000E+01
     -2.514  0.0000E+00  0.8000E+01
     -2.385  0.0000E+00  0.8000E+01
     -2.256  0.0000E+00  0.8000E+01
     -2.128  0.0000E+00  0.8000E+01
     -1.999  0.0000E+00  0.8000E+01
     -1.870  0.0000E+00  0.8000E+01
     -1.742  0.0000E+00  0.8000E+01
     -1.613  0.0000E+00  0.8000E+01
     -1.485  0.0000E+00  0.8000E+01
     -1.356  0.0000E+00  0.8000E+01
     -1.227  0.0000E+00  0.8000E+01
     -1.099  0.0000E+00  0.8000E+01
     -0.970  0.0000E+00  0.8000E+01
     -0.841  0.0000E+00  0.8000E+01
     -0.713  0.0000E+00  0.8000E+01
     -0.584  0.0000E+00  0.8000E+01
     -0.455  0.0000E+00  0.8000E+01
     -0.327  0.0000E+00  0.8000E+01
     -0.198  0.0000E+00  0.8000E+01
     -0.069  0.0000E+00  0.8000E+01
      0.059  0.0000E+00  0.8000E+01
      0.188  0.0000E+00  0.8000E+01
      0.317  0.0000E+00  0.8000E+01
      0.445  0.0000E+00  0.8000E+01
      0.574  0.0000E+00  0.8000E+01
      0.703  0.0000E+00  0.8000E+01
      0.831  0.0000E+00  0.8000E+01
      0.960  0.0000E+00  0.8000E+01
      1.089  0.0000E+00  0.8000E+01
      1.217  0.0000E+00  0.8000E+01
      1.346  0.0000E+00  0.8000E+01
      1.474  0.0000E+00  0.8000E+01
      1.603  0.0000E+00  0.8000E+01
      1.732  0.0000E+00  0.8000E+01
      1.860  0.0000E+00  0.8000E+01
      1.989  0.0000E+00  0.8000E+01
      2.118  0.0000E+00  0.8000E+01
      2.246  0.0000E+00  0.8000E+01
      2.375  0.0000E+00  0.8000E+01
      2.504  0.0000E+00  0.8000E+01
      2.632  0.0000E+00  0.8000E+01
      2.761  0.0000E+00  0.8000E+01
      2.890  0.0000E+00  0.8000E+01
      3.018  0.0000E+00  0.8000E+01
      3.147  0.0000E+00  0.8000E+01
      3.276  0.0000E+00  0.8000E+01
      3.404  0.0000E+00  0.8000E+01
      3.533  0.0000E+00  0.8000E+01
      3.662  0.0000E+00  0.8000E+01
      3.790  0.0000E+00  0.8009E+01
      3.919  0.0000E+00  0.8009E+01
      4.047  0.0000E+00  0.8009E+01
      4.176  0.0000E+00  0.8009E+01
      4.305  0.0000E+00  0.8009E+01
      4.433  0.0000E+00  0.8009E+01
      4.562  0.0000E+00  0.8083E+01
      4.691  0.0000E+00  0.8083E+01
      4.819  0.0000E+00  0.8139E+01
      4.948  0.0000E+00  0.8139E+01
      5.077  0.0000E+00  0.8139E+01
      5.205  0.0000E+00  0.8139E+01
      5.334  0.0000E+00  0.8139E+01
      5.463  0.0000E+00  0.8139E+01
      5.591  0.0000E+00  0.8250E+01
      5.720  0.0000E+00  0.8250E+01
      5.849  0.0000E+00  0.8352E+01
      5.977  0.0000E+00  0.8574E+01
      6.106  0.0000E+00  0.8630E+01
      6.235  0.0000E+00  0.8667E+01
      6.363  0.0000E+00  0.8889E+01
      6.492  0.0000E+00  0.8889E+01
      6.621  0.0000E+00  0.9000E+01
      6.749  0.0000E+00  0.9444E+01
      6.878  0.0000E+00  0.9667E+01
      7.006  0.0000E+00  0.9667E+01
      7.135  0.3508E+00  0.9712E+01
      7.264  0.0000E+00  0.9806E+01
      7.392  0.0000E+00  0.1003E+02
      7.521  0.0000E+00  0.1003E+02
      7.650  0.1721E+01  0.1025E+02
      7.778  0.0000E+00  0.1031E+02
      7.907  0.0000E+00  0.1064E+02
      8.036  0.0000E+00  0.1075E+02
      8.164  0.0000E+00  0.1097E+02
      8.293  0.0000E+00  0.1119E+02
      8.422  0.0000E+00  0.1164E+02
      8.550  0.0000E+00  0.1164E+02
      8.679  0.0000E+00  0.1186E+02
      8.808  0.0000E+00  0.1194E+02
      8.936  0.0000E+00  0.1208E+02
      9.065  0.0000E+00  0.1236E+02
      9.194  0.0000E+00  0.1236E+02
      9.322  0.0000E+00  0.1269E+02
      9.451  0.5230E+00  0.1284E+02
      9.579  0.2403E-11  0.1327E+02
      9.708  0.0000E+00  0.1360E+02
      9.837  0.0000E+00  0.1371E+02
      9.965  0.0000E+00  0.1379E+02
     10.094  0.0000E+00  0.1379E+02
     10.223  0.0000E+00  0.1394E+02
     10.351  0.0000E+00  0.1396E+02
     10.480  0.9066E+00  0.1408E+02
     10.609  0.0000E+00  0.1458E+02
     10.737  0.0000E+00  0.1458E+02
     10.866  0.7916E-04  0.1464E+02
     10.995  0.0000E+00  0.1497E+02
     11.123  0.0000E+00  0.1531E+02
     11.252  0.0000E+00  0.1553E+02
     11.381  0.0000E+00  0.1553E+02
     11.509  0.0000E+00  0.1586E+02
     11.638  0.0000E+00  0.1586E+02
     11.767  0.0000E+00  0.1586E+02
     11.895  0.0000E+00  0.1586E+02
     12.024  0.0000E+00  0.1586E+02
     12.153  0.0000E+00  0.1586E+02
     12.281  0.0000E+00  0.1608E+02
     12.410  0.0000E+00  0.1645E+02
     12.538  0.0000E+00  0.1656E+02
     12.667  0.0000E+00  0.1656E+02
     12.796  0.0000E+00  0.1679E+02
     12.924  0.0000E+00  0.1681E+02
     13.053  0.0000E+00  0.1703E+02
     13.182  0.0000E+00  0.1714E+02
     13.310  0.3599E-01  0.1727E+02
     13.439  0.0000E+00  0.1734E+02
     13.568  0.0000E+00  0.1779E+02
     13.696  0.0000E+00  0.1805E+02
     13.825  0.0000E+00  0.1827E+02
     13.954  0.0000E+00  0.1827E+02
     14.082  0.0000E+00  0.1849E+02
     14.211  0.0000E+00  0.1849E+02
     14.340  0.0000E+00  0.1855E+02
     14.468  0.0000E+00  0.1857E+02
     14.597  0.0000E+00  0.1860E+02
     14.726  0.0000E+00  0.1860E+02
     14.854  0.0000E+00  0.1860E+02
     14.983  0.0000E+00  0.1878E+02
     15.111  0.3599E-01  0.1922E+02
     15.240  0.1874E+00  0.1937E+02
     15.369  0.0000E+00  0.1966E+02
     15.497  0.0000E+00  0.1967E+02
     15.626  0.0000E+00  0.1989E+02
     15.755  0.0000E+00  0.2000E+02
     15.883  0.0000E+00  0.2000E+02
     16.012  0.0000E+00  0.2000E+02
     16.141  0.0000E+00  0.2000E+02
     16.269  0.0000E+00  0.2000E+02
     16.398  0.0000E+00  0.2000E+02
     16.527  0.0000E+00  0.2000E+02
     16.655  0.0000E+00  0.2000E+02
     16.784  0.0000E+00  0.2000E+02
     16.913  0.0000E+00  0.2000E+02
     17.041  0.0000E+00  0.2000E+02
     17.170  0.0000E+00  0.2000E+02
     17.299  0.0000E+00  0.2000E+02
     17.427  0.0000E+00  0.2000E+02
