   1   1   0   0
  0.4928368E+02  0.4115343E-09  0.4115343E-09  0.4115343E-09  0.1000000E-15
  1.000000000000000E-004
  CAR 
 Og_FCC                                  
     16.54457955    -21.46418741  301     -4.45526419      1.00000000
    -21.464  0.0000E+00  0.0000E+00
    -21.337  0.0000E+00  0.0000E+00
    -21.211  0.0000E+00  0.0000E+00
    -21.084  0.0000E+00  0.0000E+00
    -20.957  0.0000E+00  0.0000E+00
    -20.831  0.0000E+00  0.0000E+00
    -20.704  0.0000E+00  0.0000E+00
    -20.577  0.0000E+00  0.0000E+00
    -20.451  0.0000E+00  0.0000E+00
    -20.324  0.0000E+00  0.0000E+00
    -20.197  0.0000E+00  0.0000E+00
    -20.071  0.0000E+00  0.0000E+00
    -19.944  0.0000E+00  0.0000E+00
    -19.817  0.0000E+00  0.0000E+00
    -19.690  0.2199E+00  0.1112E+00
    -19.564  0.2294E-03  0.1306E+01
    -19.437  0.0000E+00  0.2000E+01
    -19.310  0.0000E+00  0.2000E+01
    -19.184  0.0000E+00  0.2000E+01
    -19.057  0.0000E+00  0.2000E+01
    -18.930  0.0000E+00  0.2000E+01
    -18.804  0.0000E+00  0.2000E+01
    -18.677  0.0000E+00  0.2000E+01
    -18.550  0.0000E+00  0.2000E+01
    -18.423  0.0000E+00  0.2000E+01
    -18.297  0.0000E+00  0.2000E+01
    -18.170  0.0000E+00  0.2000E+01
    -18.043  0.0000E+00  0.2000E+01
    -17.917  0.0000E+00  0.2000E+01
    -17.790  0.0000E+00  0.2000E+01
    -17.663  0.0000E+00  0.2000E+01
    -17.537  0.0000E+00  0.2000E+01
    -17.410  0.0000E+00  0.2000E+01
    -17.283  0.0000E+00  0.2000E+01
    -17.157  0.0000E+00  0.2000E+01
    -17.030  0.0000E+00  0.2000E+01
    -16.903  0.0000E+00  0.2000E+01
    -16.776  0.0000E+00  0.2000E+01
    -16.650  0.0000E+00  0.2000E+01
    -16.523  0.0000E+00  0.2000E+01
    -16.396  0.0000E+00  0.2000E+01
    -16.270  0.0000E+00  0.2000E+01
    -16.143  0.0000E+00  0.2000E+01
    -16.016  0.0000E+00  0.2000E+01
    -15.890  0.0000E+00  0.2000E+01
    -15.763  0.0000E+00  0.2000E+01
    -15.636  0.0000E+00  0.2000E+01
    -15.509  0.0000E+00  0.2000E+01
    -15.383  0.0000E+00  0.2000E+01
    -15.256  0.0000E+00  0.2000E+01
    -15.129  0.0000E+00  0.2000E+01
    -15.003  0.0000E+00  0.2000E+01
    -14.876  0.0000E+00  0.2000E+01
    -14.749  0.0000E+00  0.2000E+01
    -14.623  0.0000E+00  0.2000E+01
    -14.496  0.0000E+00  0.2000E+01
    -14.369  0.0000E+00  0.2000E+01
    -14.243  0.0000E+00  0.2000E+01
    -14.116  0.0000E+00  0.2000E+01
    -13.989  0.0000E+00  0.2000E+01
    -13.862  0.0000E+00  0.2000E+01
    -13.736  0.0000E+00  0.2000E+01
    -13.609  0.0000E+00  0.2000E+01
    -13.482  0.0000E+00  0.2000E+01
    -13.356  0.0000E+00  0.2000E+01
    -13.229  0.0000E+00  0.2000E+01
    -13.102  0.0000E+00  0.2000E+01
    -12.976  0.0000E+00  0.2000E+01
    -12.849  0.0000E+00  0.2000E+01
    -12.722  0.0000E+00  0.2000E+01
    -12.595  0.0000E+00  0.2000E+01
    -12.469  0.0000E+00  0.2000E+01
    -12.342  0.0000E+00  0.2000E+01
    -12.215  0.0000E+00  0.2000E+01
    -12.089  0.0000E+00  0.2000E+01
    -11.962  0.0000E+00  0.2000E+01
    -11.835  0.0000E+00  0.2000E+01
    -11.709  0.0000E+00  0.2000E+01
    -11.582  0.0000E+00  0.2000E+01
    -11.455  0.0000E+00  0.2000E+01
    -11.329  0.0000E+00  0.2000E+01
    -11.202  0.0000E+00  0.2000E+01
    -11.075  0.0000E+00  0.2000E+01
    -10.948  0.0000E+00  0.2000E+01
    -10.822  0.0000E+00  0.2000E+01
    -10.695  0.0000E+00  0.2000E+01
    -10.568  0.0000E+00  0.2000E+01
    -10.442  0.0000E+00  0.2000E+01
    -10.315  0.0000E+00  0.2000E+01
    -10.188  0.0000E+00  0.2000E+01
    -10.062  0.0000E+00  0.2000E+01
     -9.935  0.0000E+00  0.2000E+01
     -9.808  0.0000E+00  0.2000E+01
     -9.681  0.0000E+00  0.2000E+01
     -9.555  0.0000E+00  0.2000E+01
     -9.428  0.0000E+00  0.2000E+01
     -9.301  0.0000E+00  0.2000E+01
     -9.175  0.0000E+00  0.2000E+01
     -9.048  0.0000E+00  0.2000E+01
     -8.921  0.0000E+00  0.2000E+01
     -8.795  0.0000E+00  0.2000E+01
     -8.668  0.0000E+00  0.2000E+01
     -8.541  0.0000E+00  0.2000E+01
     -8.415  0.0000E+00  0.2000E+01
     -8.288  0.0000E+00  0.2000E+01
     -8.161  0.0000E+00  0.2000E+01
     -8.034  0.0000E+00  0.2000E+01
     -7.908  0.0000E+00  0.2000E+01
     -7.781  0.0000E+00  0.2000E+01
     -7.654  0.0000E+00  0.2000E+01
     -7.528  0.0000E+00  0.2000E+01
     -7.401  0.0000E+00  0.2000E+01
     -7.274  0.0000E+00  0.2000E+01
     -7.148  0.0000E+00  0.2000E+01
     -7.021  0.0000E+00  0.2000E+01
     -6.894  0.0000E+00  0.2000E+01
     -6.767  0.0000E+00  0.2000E+01
     -6.641  0.0000E+00  0.2000E+01
     -6.514  0.0000E+00  0.2000E+01
     -6.387  0.0000E+00  0.2000E+01
     -6.261  0.0000E+00  0.2000E+01
     -6.134  0.0000E+00  0.2000E+01
     -6.007  0.0000E+00  0.2037E+01
     -5.881  0.1754E+01  0.3065E+01
     -5.754  0.0000E+00  0.3528E+01
     -5.627  0.0000E+00  0.3750E+01
     -5.501  0.0000E+00  0.3861E+01
     -5.374  0.8817E-04  0.3917E+01
     -5.247  0.1748E+01  0.4657E+01
     -5.120  0.0000E+00  0.5361E+01
     -4.994  0.1754E+01  0.5787E+01
     -4.867  0.2704E-08  0.6556E+01
     -4.740  0.6100E-07  0.7333E+01
     -4.614  0.0000E+00  0.7907E+01
     -4.487  0.0000E+00  0.8000E+01
     -4.360  0.0000E+00  0.8000E+01
     -4.234  0.0000E+00  0.8000E+01
     -4.107  0.0000E+00  0.8000E+01
     -3.980  0.0000E+00  0.8000E+01
     -3.853  0.0000E+00  0.8000E+01
     -3.727  0.0000E+00  0.8000E+01
     -3.600  0.0000E+00  0.8000E+01
     -3.473  0.0000E+00  0.8000E+01
     -3.347  0.0000E+00  0.8000E+01
     -3.220  0.0000E+00  0.8000E+01
     -3.093  0.0000E+00  0.8000E+01
     -2.967  0.0000E+00  0.8000E+01
     -2.840  0.0000E+00  0.8000E+01
     -2.713  0.0000E+00  0.8000E+01
     -2.586  0.0000E+00  0.8000E+01
     -2.460  0.0000E+00  0.8000E+01
     -2.333  0.0000E+00  0.8000E+01
     -2.206  0.0000E+00  0.8000E+01
     -2.080  0.0000E+00  0.8000E+01
     -1.953  0.0000E+00  0.8000E+01
     -1.826  0.0000E+00  0.8000E+01
     -1.700  0.0000E+00  0.8000E+01
     -1.573  0.0000E+00  0.8000E+01
     -1.446  0.0000E+00  0.8000E+01
     -1.320  0.0000E+00  0.8000E+01
     -1.193  0.0000E+00  0.8000E+01
     -1.066  0.0000E+00  0.8000E+01
     -0.939  0.0000E+00  0.8000E+01
     -0.813  0.0000E+00  0.8000E+01
     -0.686  0.0000E+00  0.8000E+01
     -0.559  0.0000E+00  0.8000E+01
     -0.433  0.0000E+00  0.8000E+01
     -0.306  0.0000E+00  0.8000E+01
     -0.179  0.0000E+00  0.8000E+01
     -0.053  0.0000E+00  0.8000E+01
      0.074  0.0000E+00  0.8000E+01
      0.201  0.0000E+00  0.8000E+01
      0.328  0.0000E+00  0.8000E+01
      0.454  0.0000E+00  0.8000E+01
      0.581  0.0000E+00  0.8000E+01
      0.708  0.0000E+00  0.8000E+01
      0.834  0.0000E+00  0.8000E+01
      0.961  0.0000E+00  0.8000E+01
      1.088  0.0000E+00  0.8000E+01
      1.214  0.0000E+00  0.8000E+01
      1.341  0.0000E+00  0.8000E+01
      1.468  0.0000E+00  0.8000E+01
      1.594  0.0000E+00  0.8000E+01
      1.721  0.0000E+00  0.8000E+01
      1.848  0.0000E+00  0.8000E+01
      1.975  0.0000E+00  0.8000E+01
      2.101  0.0000E+00  0.8000E+01
      2.228  0.0000E+00  0.8000E+01
      2.355  0.0000E+00  0.8000E+01
      2.481  0.0000E+00  0.8000E+01
      2.608  0.0000E+00  0.8000E+01
      2.735  0.0000E+00  0.8000E+01
      2.861  0.0000E+00  0.8000E+01
      2.988  0.0000E+00  0.8000E+01
      3.115  0.0000E+00  0.8000E+01
      3.242  0.0000E+00  0.8000E+01
      3.368  0.0000E+00  0.8009E+01
      3.495  0.0000E+00  0.8009E+01
      3.622  0.0000E+00  0.8009E+01
      3.748  0.0000E+00  0.8009E+01
      3.875  0.0000E+00  0.8009E+01
      4.002  0.0000E+00  0.8083E+01
      4.128  0.0000E+00  0.8083E+01
      4.255  0.0000E+00  0.8139E+01
      4.382  0.0000E+00  0.8139E+01
      4.508  0.0000E+00  0.8139E+01
      4.635  0.0000E+00  0.8139E+01
      4.762  0.0000E+00  0.8139E+01
      4.889  0.8770E+00  0.8250E+01
      5.015  0.0000E+00  0.8250E+01
      5.142  0.0000E+00  0.8250E+01
      5.269  0.2207E-03  0.8324E+01
      5.395  0.0000E+00  0.8546E+01
      5.522  0.0000E+00  0.8630E+01
      5.649  0.0000E+00  0.8630E+01
      5.775  0.0000E+00  0.8667E+01
      5.902  0.0000E+00  0.8667E+01
      6.029  0.0000E+00  0.8889E+01
      6.156  0.0000E+00  0.9111E+01
      6.282  0.0000E+00  0.9667E+01
      6.409  0.0000E+00  0.9667E+01
      6.536  0.0000E+00  0.9667E+01
      6.662  0.0000E+00  0.9667E+01
      6.789  0.0000E+00  0.9778E+01
      6.916  0.0000E+00  0.1003E+02
      7.042  0.0000E+00  0.1003E+02
      7.169  0.0000E+00  0.1003E+02
      7.296  0.1574E-12  0.1036E+02
      7.422  0.0000E+00  0.1064E+02
      7.549  0.0000E+00  0.1097E+02
      7.676  0.0000E+00  0.1097E+02
      7.803  0.0000E+00  0.1142E+02
      7.929  0.0000E+00  0.1164E+02
      8.056  0.0000E+00  0.1186E+02
      8.183  0.0000E+00  0.1197E+02
      8.309  0.0000E+00  0.1197E+02
      8.436  0.0000E+00  0.1231E+02
      8.563  0.0000E+00  0.1242E+02
      8.689  0.0000E+00  0.1269E+02
      8.816  0.0000E+00  0.1269E+02
      8.943  0.1496E-02  0.1338E+02
      9.070  0.0000E+00  0.1360E+02
      9.196  0.0000E+00  0.1360E+02
      9.323  0.0000E+00  0.1371E+02
      9.450  0.0000E+00  0.1379E+02
      9.576  0.0000E+00  0.1379E+02
      9.703  0.0000E+00  0.1396E+02
      9.830  0.7308E-01  0.1399E+02
      9.956  0.0000E+00  0.1421E+02
     10.083  0.0000E+00  0.1458E+02
     10.210  0.0000E+00  0.1458E+02
     10.336  0.1754E+01  0.1497E+02
     10.463  0.0000E+00  0.1519E+02
     10.590  0.0000E+00  0.1542E+02
     10.717  0.0000E+00  0.1553E+02
     10.843  0.0000E+00  0.1586E+02
     10.970  0.0000E+00  0.1586E+02
     11.097  0.0000E+00  0.1586E+02
     11.223  0.0000E+00  0.1586E+02
     11.350  0.0000E+00  0.1586E+02
     11.477  0.0000E+00  0.1586E+02
     11.603  0.1131E-02  0.1608E+02
     11.730  0.5847E+00  0.1651E+02
     11.857  0.0000E+00  0.1656E+02
     11.984  0.0000E+00  0.1656E+02
     12.110  0.0000E+00  0.1679E+02
     12.237  0.0000E+00  0.1681E+02
     12.364  0.0000E+00  0.1714E+02
     12.490  0.0000E+00  0.1714E+02
     12.617  0.0000E+00  0.1749E+02
     12.744  0.0000E+00  0.1779E+02
     12.870  0.0000E+00  0.1779E+02
     12.997  0.0000E+00  0.1827E+02
     13.124  0.0000E+00  0.1827E+02
     13.250  0.1754E+01  0.1849E+02
     13.377  0.0000E+00  0.1849E+02
     13.504  0.0000E+00  0.1852E+02
     13.631  0.0000E+00  0.1860E+02
     13.757  0.0000E+00  0.1860E+02
     13.884  0.0000E+00  0.1860E+02
     14.011  0.0000E+00  0.1871E+02
     14.137  0.9448E-01  0.1875E+02
     14.264  0.0000E+00  0.1922E+02
     14.391  0.0000E+00  0.1922E+02
     14.517  0.2129E-01  0.1960E+02
     14.644  0.0000E+00  0.1989E+02
     14.771  0.0000E+00  0.2000E+02
     14.898  0.0000E+00  0.2000E+02
     15.024  0.0000E+00  0.2000E+02
     15.151  0.0000E+00  0.2000E+02
     15.278  0.0000E+00  0.2000E+02
     15.404  0.0000E+00  0.2000E+02
     15.531  0.0000E+00  0.2000E+02
     15.658  0.0000E+00  0.2000E+02
     15.784  0.0000E+00  0.2000E+02
     15.911  0.0000E+00  0.2000E+02
     16.038  0.0000E+00  0.2000E+02
     16.164  0.0000E+00  0.2000E+02
     16.291  0.0000E+00  0.2000E+02
     16.418  0.0000E+00  0.2000E+02
     16.545  0.0000E+00  0.2000E+02
