<?xml version="1.0" encoding="ISO-8859-1"?>
<modeling>
 <generator>
  <i name="program" type="string">vasp </i>
  <i name="version" type="string">5.4.4.18Apr17-6-g9f103f2a35  </i>
  <i name="subversion" type="string">(build Nov 03 2018 10:20:46) complex            parallel </i>
  <i name="platform" type="string">LinuxIFC </i>
  <i name="date" type="string">2018 12 21 </i>
  <i name="time" type="string">10:09:16 </i>
 </generator>
 <incar>
  <i type="string" name="SYSTEM">   Og_FCC</i>
  <i type="string" name="PREC">accurate</i>
  <i type="string" name="ALGO">   Normal</i>
  <i type="logical" name="ADDGRID"> T  </i>
  <i type="logical" name="LSORBIT"> T  </i>
  <i type="int" name="ISPIN">     1</i>
  <i type="int" name="MAXMIX">    50</i>
  <i type="int" name="NELM">    50</i>
  <i type="int" name="NELMDL">    -5</i>
  <i type="int" name="NELMIN">     2</i>
  <i type="int" name="IBRION">    -1</i>
  <i type="int" name="NFREE">     5</i>
  <i name="EDIFF">      0.00000001</i>
  <i name="EDIFFG">      0.00001000</i>
  <i type="int" name="NSW">     1</i>
  <i type="int" name="ISIF">     3</i>
  <i type="int" name="ISYM">     0</i>
  <i name="SYMPREC">      0.00000010</i>
  <i name="ENCUT">    300.00000000</i>
  <i name="POTIM">      0.10000000</i>
  <i type="logical" name="LREAL"> F  </i>
  <i type="int" name="ISMEAR">     0</i>
  <i name="SIGMA">      0.00100000</i>
  <i type="int" name="NWRITE">     2</i>
  <i type="logical" name="LWAVE"> T  </i>
  <i type="logical" name="LCHARG"> F  </i>
  <i type="logical" name="LVTOT"> F  </i>
  <i type="logical" name="LOPTICS"> T  </i>
  <i type="logical" name="GGA_COMPAT"> F  </i>
  <v type="int" name="KPOINT_BSE">    -1     0     0     0</v>
  <i type="int" name="NELM">    50</i>
  <i type="string" name="METAGGA"> SCAN</i>
 </incar>
 <structure name="primitive_cell" >
  <crystal>
   <varray name="basis" >
    <v>       4.00933418       0.00000000       0.00000000 </v>
    <v>       2.00466709       3.47218525      -0.00000000 </v>
    <v>       2.00466709       1.15739508       3.27360765 </v>
   </varray>
   <i name="volume">     45.57238633 </i>
   <varray name="rec_basis" >
    <v>       0.24941797      -0.14400153      -0.10182446 </v>
    <v>       0.00000000       0.28800307      -0.10182446 </v>
    <v>      -0.00000000       0.00000000       0.30547338 </v>
   </varray>
  </crystal>
  <varray name="positions" >
   <v>       0.00000000       0.00000000       0.00000000 </v>
  </varray>
 </structure>
 <varray name="primitive_index" >
  <v type="int" >        1 </v>
 </varray>
 <kpoints>
  <generation param="Gamma">
   <v type="int" name="divisions">       6        6        6 </v>
   <v name="usershift">      0.00000000       0.00000000       0.00000000 </v>
   <v name="genvec1">      0.16666667      -0.00000000      -0.00000000 </v>
   <v name="genvec2">      0.00000000       0.16666667       0.00000000 </v>
   <v name="genvec3">      0.00000000       0.00000000       0.16666667 </v>
   <v name="shift">      0.00000000       0.00000000       0.00000000 </v>
  </generation>
  <varray name="kpointlist" >
   <v>       0.00000000       0.00000000       0.00000000 </v>
   <v>       0.16666667       0.00000000       0.00000000 </v>
   <v>       0.33333333      -0.00000000       0.00000000 </v>
   <v>       0.50000000       0.00000000       0.00000000 </v>
   <v>      -0.33333333       0.00000000      -0.00000000 </v>
   <v>      -0.16666667      -0.00000000      -0.00000000 </v>
   <v>      -0.00000000       0.16666667      -0.00000000 </v>
   <v>       0.16666667       0.16666667       0.00000000 </v>
   <v>       0.33333333       0.16666667       0.00000000 </v>
   <v>       0.50000000       0.16666667       0.00000000 </v>
   <v>      -0.33333333       0.16666667      -0.00000000 </v>
   <v>      -0.16666667       0.16666667      -0.00000000 </v>
   <v>      -0.00000000       0.33333333       0.00000000 </v>
   <v>       0.16666667       0.33333333       0.00000000 </v>
   <v>       0.33333333       0.33333333       0.00000000 </v>
   <v>       0.50000000       0.33333333       0.00000000 </v>
   <v>      -0.33333333       0.33333333      -0.00000000 </v>
   <v>      -0.16666667       0.33333333      -0.00000000 </v>
   <v>       0.00000000       0.50000000      -0.00000000 </v>
   <v>       0.16666667       0.50000000       0.00000000 </v>
   <v>       0.33333333       0.50000000       0.00000000 </v>
   <v>       0.50000000       0.50000000       0.00000000 </v>
   <v>      -0.33333333       0.50000000      -0.00000000 </v>
   <v>      -0.16666667       0.50000000      -0.00000000 </v>
   <v>       0.00000000      -0.33333333      -0.00000000 </v>
   <v>       0.16666667      -0.33333333       0.00000000 </v>
   <v>       0.33333333      -0.33333333       0.00000000 </v>
   <v>       0.50000000      -0.33333333       0.00000000 </v>
   <v>      -0.33333333      -0.33333333       0.00000000 </v>
   <v>      -0.16666667      -0.33333333       0.00000000 </v>
   <v>       0.00000000      -0.16666667       0.00000000 </v>
   <v>       0.16666667      -0.16666667       0.00000000 </v>
   <v>       0.33333333      -0.16666667       0.00000000 </v>
   <v>       0.50000000      -0.16666667       0.00000000 </v>
   <v>      -0.33333333      -0.16666667      -0.00000000 </v>
   <v>      -0.16666667      -0.16666667       0.00000000 </v>
   <v>       0.00000000       0.00000000       0.16666667 </v>
   <v>       0.16666667       0.00000000       0.16666667 </v>
   <v>       0.33333333      -0.00000000       0.16666667 </v>
   <v>       0.50000000       0.00000000       0.16666667 </v>
   <v>      -0.33333333       0.00000000       0.16666667 </v>
   <v>      -0.16666667       0.00000000       0.16666667 </v>
   <v>      -0.00000000       0.16666667       0.16666667 </v>
   <v>       0.16666667       0.16666667       0.16666667 </v>
   <v>       0.33333333       0.16666667       0.16666667 </v>
   <v>       0.50000000       0.16666667       0.16666667 </v>
   <v>      -0.33333333       0.16666667       0.16666667 </v>
   <v>      -0.16666667       0.16666667       0.16666667 </v>
   <v>      -0.00000000       0.33333333       0.16666667 </v>
   <v>       0.16666667       0.33333333       0.16666667 </v>
   <v>       0.33333333       0.33333333       0.16666667 </v>
   <v>       0.50000000       0.33333333       0.16666667 </v>
   <v>      -0.33333333       0.33333333       0.16666667 </v>
   <v>      -0.16666667       0.33333333       0.16666667 </v>
   <v>       0.00000000       0.50000000       0.16666667 </v>
   <v>       0.16666667       0.50000000       0.16666667 </v>
   <v>       0.33333333       0.50000000       0.16666667 </v>
   <v>       0.50000000       0.50000000       0.16666667 </v>
   <v>      -0.33333333       0.50000000       0.16666667 </v>
   <v>      -0.16666667       0.50000000       0.16666667 </v>
   <v>      -0.00000000      -0.33333333       0.16666667 </v>
   <v>       0.16666667      -0.33333333       0.16666667 </v>
   <v>       0.33333333      -0.33333333       0.16666667 </v>
   <v>       0.50000000      -0.33333333       0.16666667 </v>
   <v>      -0.33333333      -0.33333333       0.16666667 </v>
   <v>      -0.16666667      -0.33333333       0.16666667 </v>
   <v>       0.00000000      -0.16666667       0.16666667 </v>
   <v>       0.16666667      -0.16666667       0.16666667 </v>
   <v>       0.33333333      -0.16666667       0.16666667 </v>
   <v>       0.50000000      -0.16666667       0.16666667 </v>
   <v>      -0.33333333      -0.16666667       0.16666667 </v>
   <v>      -0.16666667      -0.16666667       0.16666667 </v>
   <v>      -0.00000000      -0.00000000       0.33333333 </v>
   <v>       0.16666667      -0.00000000       0.33333333 </v>
   <v>       0.33333333      -0.00000000       0.33333333 </v>
   <v>       0.50000000      -0.00000000       0.33333333 </v>
   <v>      -0.33333333       0.00000000       0.33333333 </v>
   <v>      -0.16666667       0.00000000       0.33333333 </v>
   <v>      -0.00000000       0.16666667       0.33333333 </v>
   <v>       0.16666667       0.16666667       0.33333333 </v>
   <v>       0.33333333       0.16666667       0.33333333 </v>
   <v>       0.50000000       0.16666667       0.33333333 </v>
   <v>      -0.33333333       0.16666667       0.33333333 </v>
   <v>      -0.16666667       0.16666667       0.33333333 </v>
   <v>       0.00000000       0.33333333       0.33333333 </v>
   <v>       0.16666667       0.33333333       0.33333333 </v>
   <v>       0.33333333       0.33333333       0.33333333 </v>
   <v>       0.50000000       0.33333333       0.33333333 </v>
   <v>      -0.33333333       0.33333333       0.33333333 </v>
   <v>      -0.16666667       0.33333333       0.33333333 </v>
   <v>      -0.00000000       0.50000000       0.33333333 </v>
   <v>       0.16666667       0.50000000       0.33333333 </v>
   <v>       0.33333333       0.50000000       0.33333333 </v>
   <v>       0.50000000       0.50000000       0.33333333 </v>
   <v>      -0.33333333       0.50000000       0.33333333 </v>
   <v>      -0.16666667       0.50000000       0.33333333 </v>
   <v>      -0.00000000      -0.33333333       0.33333333 </v>
   <v>       0.16666667      -0.33333333       0.33333333 </v>
   <v>       0.33333333      -0.33333333       0.33333333 </v>
   <v>       0.50000000      -0.33333333       0.33333333 </v>
   <v>      -0.33333333      -0.33333333       0.33333333 </v>
   <v>      -0.16666667      -0.33333333       0.33333333 </v>
   <v>       0.00000000      -0.16666667       0.33333333 </v>
   <v>       0.16666667      -0.16666667       0.33333333 </v>
   <v>       0.33333333      -0.16666667       0.33333333 </v>
   <v>       0.50000000      -0.16666667       0.33333333 </v>
   <v>      -0.33333333      -0.16666667       0.33333333 </v>
   <v>      -0.16666667      -0.16666667       0.33333333 </v>
   <v>       0.00000000       0.00000000       0.50000000 </v>
   <v>       0.16666667       0.00000000       0.50000000 </v>
   <v>       0.33333333      -0.00000000       0.50000000 </v>
   <v>       0.50000000      -0.00000000       0.50000000 </v>
   <v>      -0.33333333       0.00000000       0.50000000 </v>
   <v>      -0.16666667      -0.00000000       0.50000000 </v>
   <v>       0.00000000       0.16666667       0.50000000 </v>
   <v>       0.16666667       0.16666667       0.50000000 </v>
   <v>       0.33333333       0.16666667       0.50000000 </v>
   <v>       0.50000000       0.16666667       0.50000000 </v>
   <v>      -0.33333333       0.16666667       0.50000000 </v>
   <v>      -0.16666667       0.16666667       0.50000000 </v>
   <v>       0.00000000       0.33333333       0.50000000 </v>
   <v>       0.16666667       0.33333333       0.50000000 </v>
   <v>       0.33333333       0.33333333       0.50000000 </v>
   <v>       0.50000000       0.33333333       0.50000000 </v>
   <v>      -0.33333333       0.33333333       0.50000000 </v>
   <v>      -0.16666667       0.33333333       0.50000000 </v>
   <v>      -0.00000000       0.50000000       0.50000000 </v>
   <v>       0.16666667       0.50000000       0.50000000 </v>
   <v>       0.33333333       0.50000000       0.50000000 </v>
   <v>       0.50000000       0.50000000       0.50000000 </v>
   <v>      -0.33333333       0.50000000       0.50000000 </v>
   <v>      -0.16666667       0.50000000       0.50000000 </v>
   <v>       0.00000000      -0.33333333       0.50000000 </v>
   <v>       0.16666667      -0.33333333       0.50000000 </v>
   <v>       0.33333333      -0.33333333       0.50000000 </v>
   <v>       0.50000000      -0.33333333       0.50000000 </v>
   <v>      -0.33333333      -0.33333333       0.50000000 </v>
   <v>      -0.16666667      -0.33333333       0.50000000 </v>
   <v>       0.00000000      -0.16666667       0.50000000 </v>
   <v>       0.16666667      -0.16666667       0.50000000 </v>
   <v>       0.33333333      -0.16666667       0.50000000 </v>
   <v>       0.50000000      -0.16666667       0.50000000 </v>
   <v>      -0.33333333      -0.16666667       0.50000000 </v>
   <v>      -0.16666667      -0.16666667       0.50000000 </v>
   <v>       0.00000000       0.00000000      -0.33333333 </v>
   <v>       0.16666667      -0.00000000      -0.33333333 </v>
   <v>       0.33333333      -0.00000000      -0.33333333 </v>
   <v>       0.50000000       0.00000000      -0.33333333 </v>
   <v>      -0.33333333       0.00000000      -0.33333333 </v>
   <v>      -0.16666667       0.00000000      -0.33333333 </v>
   <v>       0.00000000       0.16666667      -0.33333333 </v>
   <v>       0.16666667       0.16666667      -0.33333333 </v>
   <v>       0.33333333       0.16666667      -0.33333333 </v>
   <v>       0.50000000       0.16666667      -0.33333333 </v>
   <v>      -0.33333333       0.16666667      -0.33333333 </v>
   <v>      -0.16666667       0.16666667      -0.33333333 </v>
   <v>       0.00000000       0.33333333      -0.33333333 </v>
   <v>       0.16666667       0.33333333      -0.33333333 </v>
   <v>       0.33333333       0.33333333      -0.33333333 </v>
   <v>       0.50000000       0.33333333      -0.33333333 </v>
   <v>      -0.33333333       0.33333333      -0.33333333 </v>
   <v>      -0.16666667       0.33333333      -0.33333333 </v>
   <v>      -0.00000000       0.50000000      -0.33333333 </v>
   <v>       0.16666667       0.50000000      -0.33333333 </v>
   <v>       0.33333333       0.50000000      -0.33333333 </v>
   <v>       0.50000000       0.50000000      -0.33333333 </v>
   <v>      -0.33333333       0.50000000      -0.33333333 </v>
   <v>      -0.16666667       0.50000000      -0.33333333 </v>
   <v>       0.00000000      -0.33333333      -0.33333333 </v>
   <v>       0.16666667      -0.33333333      -0.33333333 </v>
   <v>       0.33333333      -0.33333333      -0.33333333 </v>
   <v>       0.50000000      -0.33333333      -0.33333333 </v>
   <v>      -0.33333333      -0.33333333      -0.33333333 </v>
   <v>      -0.16666667      -0.33333333      -0.33333333 </v>
   <v>       0.00000000      -0.16666667      -0.33333333 </v>
   <v>       0.16666667      -0.16666667      -0.33333333 </v>
   <v>       0.33333333      -0.16666667      -0.33333333 </v>
   <v>       0.50000000      -0.16666667      -0.33333333 </v>
   <v>      -0.33333333      -0.16666667      -0.33333333 </v>
   <v>      -0.16666667      -0.16666667      -0.33333333 </v>
   <v>       0.00000000      -0.00000000      -0.16666667 </v>
   <v>       0.16666667      -0.00000000      -0.16666667 </v>
   <v>       0.33333333      -0.00000000      -0.16666667 </v>
   <v>       0.50000000       0.00000000      -0.16666667 </v>
   <v>      -0.33333333       0.00000000      -0.16666667 </v>
   <v>      -0.16666667      -0.00000000      -0.16666667 </v>
   <v>      -0.00000000       0.16666667      -0.16666667 </v>
   <v>       0.16666667       0.16666667      -0.16666667 </v>
   <v>       0.33333333       0.16666667      -0.16666667 </v>
   <v>       0.50000000       0.16666667      -0.16666667 </v>
   <v>      -0.33333333       0.16666667      -0.16666667 </v>
   <v>      -0.16666667       0.16666667      -0.16666667 </v>
   <v>       0.00000000       0.33333333      -0.16666667 </v>
   <v>       0.16666667       0.33333333      -0.16666667 </v>
   <v>       0.33333333       0.33333333      -0.16666667 </v>
   <v>       0.50000000       0.33333333      -0.16666667 </v>
   <v>      -0.33333333       0.33333333      -0.16666667 </v>
   <v>      -0.16666667       0.33333333      -0.16666667 </v>
   <v>      -0.00000000       0.50000000      -0.16666667 </v>
   <v>       0.16666667       0.50000000      -0.16666667 </v>
   <v>       0.33333333       0.50000000      -0.16666667 </v>
   <v>       0.50000000       0.50000000      -0.16666667 </v>
   <v>      -0.33333333       0.50000000      -0.16666667 </v>
   <v>      -0.16666667       0.50000000      -0.16666667 </v>
   <v>       0.00000000      -0.33333333      -0.16666667 </v>
   <v>       0.16666667      -0.33333333      -0.16666667 </v>
   <v>       0.33333333      -0.33333333      -0.16666667 </v>
   <v>       0.50000000      -0.33333333      -0.16666667 </v>
   <v>      -0.33333333      -0.33333333      -0.16666667 </v>
   <v>      -0.16666667      -0.33333333      -0.16666667 </v>
   <v>      -0.00000000      -0.16666667      -0.16666667 </v>
   <v>       0.16666667      -0.16666667      -0.16666667 </v>
   <v>       0.33333333      -0.16666667      -0.16666667 </v>
   <v>       0.50000000      -0.16666667      -0.16666667 </v>
   <v>      -0.33333333      -0.16666667      -0.16666667 </v>
   <v>      -0.16666667      -0.16666667      -0.16666667 </v>
  </varray>
  <varray name="weights" >
   <v>       0.00462963 </v>
   <v>       0.00462963 </v>
   <v>       0.00462963 </v>
   <v>       0.00462963 </v>
   <v>       0.00462963 </v>
   <v>       0.00462963 </v>
   <v>       0.00462963 </v>
   <v>       0.00462963 </v>
   <v>       0.00462963 </v>
   <v>       0.00462963 </v>
   <v>       0.00462963 </v>
   <v>       0.00462963 </v>
   <v>       0.00462963 </v>
   <v>       0.00462963 </v>
   <v>       0.00462963 </v>
   <v>       0.00462963 </v>
   <v>       0.00462963 </v>
   <v>       0.00462963 </v>
   <v>       0.00462963 </v>
   <v>       0.00462963 </v>
   <v>       0.00462963 </v>
   <v>       0.00462963 </v>
   <v>       0.00462963 </v>
   <v>       0.00462963 </v>
   <v>       0.00462963 </v>
   <v>       0.00462963 </v>
   <v>       0.00462963 </v>
   <v>       0.00462963 </v>
   <v>       0.00462963 </v>
   <v>       0.00462963 </v>
   <v>       0.00462963 </v>
   <v>       0.00462963 </v>
   <v>       0.00462963 </v>
   <v>       0.00462963 </v>
   <v>       0.00462963 </v>
   <v>       0.00462963 </v>
   <v>       0.00462963 </v>
   <v>       0.00462963 </v>
   <v>       0.00462963 </v>
   <v>       0.00462963 </v>
   <v>       0.00462963 </v>
   <v>       0.00462963 </v>
   <v>       0.00462963 </v>
   <v>       0.00462963 </v>
   <v>       0.00462963 </v>
   <v>       0.00462963 </v>
   <v>       0.00462963 </v>
   <v>       0.00462963 </v>
   <v>       0.00462963 </v>
   <v>       0.00462963 </v>
   <v>       0.00462963 </v>
   <v>       0.00462963 </v>
   <v>       0.00462963 </v>
   <v>       0.00462963 </v>
   <v>       0.00462963 </v>
   <v>       0.00462963 </v>
   <v>       0.00462963 </v>
   <v>       0.00462963 </v>
   <v>       0.00462963 </v>
   <v>       0.00462963 </v>
   <v>       0.00462963 </v>
   <v>       0.00462963 </v>
   <v>       0.00462963 </v>
   <v>       0.00462963 </v>
   <v>       0.00462963 </v>
   <v>       0.00462963 </v>
   <v>       0.00462963 </v>
   <v>       0.00462963 </v>
   <v>       0.00462963 </v>
   <v>       0.00462963 </v>
   <v>       0.00462963 </v>
   <v>       0.00462963 </v>
   <v>       0.00462963 </v>
   <v>       0.00462963 </v>
   <v>       0.00462963 </v>
   <v>       0.00462963 </v>
   <v>       0.00462963 </v>
   <v>       0.00462963 </v>
   <v>       0.00462963 </v>
   <v>       0.00462963 </v>
   <v>       0.00462963 </v>
   <v>       0.00462963 </v>
   <v>       0.00462963 </v>
   <v>       0.00462963 </v>
   <v>       0.00462963 </v>
   <v>       0.00462963 </v>
   <v>       0.00462963 </v>
   <v>       0.00462963 </v>
   <v>       0.00462963 </v>
   <v>       0.00462963 </v>
   <v>       0.00462963 </v>
   <v>       0.00462963 </v>
   <v>       0.00462963 </v>
   <v>       0.00462963 </v>
   <v>       0.00462963 </v>
   <v>       0.00462963 </v>
   <v>       0.00462963 </v>
   <v>       0.00462963 </v>
   <v>       0.00462963 </v>
   <v>       0.00462963 </v>
   <v>       0.00462963 </v>
   <v>       0.00462963 </v>
   <v>       0.00462963 </v>
   <v>       0.00462963 </v>
   <v>       0.00462963 </v>
   <v>       0.00462963 </v>
   <v>       0.00462963 </v>
   <v>       0.00462963 </v>
   <v>       0.00462963 </v>
   <v>       0.00462963 </v>
   <v>       0.00462963 </v>
   <v>       0.00462963 </v>
   <v>       0.00462963 </v>
   <v>       0.00462963 </v>
   <v>       0.00462963 </v>
   <v>       0.00462963 </v>
   <v>       0.00462963 </v>
   <v>       0.00462963 </v>
   <v>       0.00462963 </v>
   <v>       0.00462963 </v>
   <v>       0.00462963 </v>
   <v>       0.00462963 </v>
   <v>       0.00462963 </v>
   <v>       0.00462963 </v>
   <v>       0.00462963 </v>
   <v>       0.00462963 </v>
   <v>       0.00462963 </v>
   <v>       0.00462963 </v>
   <v>       0.00462963 </v>
   <v>       0.00462963 </v>
   <v>       0.00462963 </v>
   <v>       0.00462963 </v>
   <v>       0.00462963 </v>
   <v>       0.00462963 </v>
   <v>       0.00462963 </v>
   <v>       0.00462963 </v>
   <v>       0.00462963 </v>
   <v>       0.00462963 </v>
   <v>       0.00462963 </v>
   <v>       0.00462963 </v>
   <v>       0.00462963 </v>
   <v>       0.00462963 </v>
   <v>       0.00462963 </v>
   <v>       0.00462963 </v>
   <v>       0.00462963 </v>
   <v>       0.00462963 </v>
   <v>       0.00462963 </v>
   <v>       0.00462963 </v>
   <v>       0.00462963 </v>
   <v>       0.00462963 </v>
   <v>       0.00462963 </v>
   <v>       0.00462963 </v>
   <v>       0.00462963 </v>
   <v>       0.00462963 </v>
   <v>       0.00462963 </v>
   <v>       0.00462963 </v>
   <v>       0.00462963 </v>
   <v>       0.00462963 </v>
   <v>       0.00462963 </v>
   <v>       0.00462963 </v>
   <v>       0.00462963 </v>
   <v>       0.00462963 </v>
   <v>       0.00462963 </v>
   <v>       0.00462963 </v>
   <v>       0.00462963 </v>
   <v>       0.00462963 </v>
   <v>       0.00462963 </v>
   <v>       0.00462963 </v>
   <v>       0.00462963 </v>
   <v>       0.00462963 </v>
   <v>       0.00462963 </v>
   <v>       0.00462963 </v>
   <v>       0.00462963 </v>
   <v>       0.00462963 </v>
   <v>       0.00462963 </v>
   <v>       0.00462963 </v>
   <v>       0.00462963 </v>
   <v>       0.00462963 </v>
   <v>       0.00462963 </v>
   <v>       0.00462963 </v>
   <v>       0.00462963 </v>
   <v>       0.00462963 </v>
   <v>       0.00462963 </v>
   <v>       0.00462963 </v>
   <v>       0.00462963 </v>
   <v>       0.00462963 </v>
   <v>       0.00462963 </v>
   <v>       0.00462963 </v>
   <v>       0.00462963 </v>
   <v>       0.00462963 </v>
   <v>       0.00462963 </v>
   <v>       0.00462963 </v>
   <v>       0.00462963 </v>
   <v>       0.00462963 </v>
   <v>       0.00462963 </v>
   <v>       0.00462963 </v>
   <v>       0.00462963 </v>
   <v>       0.00462963 </v>
   <v>       0.00462963 </v>
   <v>       0.00462963 </v>
   <v>       0.00462963 </v>
   <v>       0.00462963 </v>
   <v>       0.00462963 </v>
   <v>       0.00462963 </v>
   <v>       0.00462963 </v>
   <v>       0.00462963 </v>
   <v>       0.00462963 </v>
   <v>       0.00462963 </v>
   <v>       0.00462963 </v>
   <v>       0.00462963 </v>
   <v>       0.00462963 </v>
   <v>       0.00462963 </v>
   <v>       0.00462963 </v>
   <v>       0.00462963 </v>
   <v>       0.00462963 </v>
   <v>       0.00462963 </v>
  </varray>
 </kpoints>
 <parameters>
  <separator name="general" >
   <i type="string" name="SYSTEM">Og_FCC</i>
   <i type="logical" name="LCOMPAT"> F  </i>
  </separator>
  <separator name="electronic" >
   <i type="string" name="PREC">accura</i>
   <i name="ENMAX">    300.00000000</i>
   <i name="ENAUG">    554.76500000</i>
   <i name="EDIFF">      0.00000001</i>
   <i type="int" name="IALGO">    38</i>
   <i type="int" name="IWAVPR">    10</i>
   <i type="int" name="NBANDS">    20</i>
   <i name="NELECT">      8.00000000</i>
   <i type="int" name="TURBO">     0</i>
   <i type="int" name="IRESTART">     0</i>
   <i type="int" name="NREBOOT">     0</i>
   <i type="int" name="NMIN">     0</i>
   <i name="EREF">      0.00000000</i>
   <separator name="electronic smearing" >
    <i type="int" name="ISMEAR">     0</i>
    <i name="SIGMA">      0.00100000</i>
    <i name="KSPACING">      0.50000000</i>
    <i type="logical" name="KGAMMA"> T  </i>
   </separator>
   <separator name="electronic projectors" >
    <i type="logical" name="LREAL"> F  </i>
    <v name="ROPT">      0.00000000</v>
    <i type="int" name="LMAXPAW">  -100</i>
    <i type="int" name="LMAXMIX">     2</i>
    <i type="logical" name="NLSPLINE"> F  </i>
   </separator>
   <separator name="electronic startup" >
    <i type="int" name="ISTART">     1</i>
    <i type="int" name="ICHARG">     0</i>
    <i type="int" name="INIWAV">     1</i>
   </separator>
   <separator name="electronic spin" >
    <i type="int" name="ISPIN">     1</i>
    <i type="logical" name="LNONCOLLINEAR"> T  </i>
    <v name="MAGMOM">      1.00000000      1.00000000      1.00000000</v>
    <i name="NUPDOWN">     -1.00000000</i>
    <i type="logical" name="LSORBIT"> T  </i>
    <v name="SAXIS">      0.00000000      0.00000000      1.00000000</v>
    <i type="logical" name="LSPIRAL"> F  </i>
    <v name="QSPIRAL">      0.00000000      0.00000000      0.00000000</v>
    <i type="logical" name="LZEROZ"> F  </i>
   </separator>
   <separator name="electronic exchange-correlation" >
    <i type="logical" name="LASPH"> F  </i>
    <i type="logical" name="LMETAGGA"> F  </i>
   </separator>
   <separator name="electronic convergence" >
    <i type="int" name="NELM">    50</i>
    <i type="int" name="NELMDL">    -5</i>
    <i type="int" name="NELMIN">     2</i>
    <i name="ENINI">    300.00000000</i>
    <separator name="electronic convergence detail" >
     <i type="logical" name="LDIAG"> T  </i>
     <i type="logical" name="LSUBROT"> F  </i>
     <i name="WEIMIN">      0.00000000</i>
     <i name="EBREAK">      0.00000000</i>
     <i name="DEPER">      0.30000000</i>
     <i type="int" name="NRMM">     4</i>
     <i name="TIME">      0.40000000</i>
    </separator>
   </separator>
   <separator name="electronic mixer" >
    <i name="AMIX">      0.40000000</i>
    <i name="BMIX">      1.00000000</i>
    <i name="AMIN">      0.10000000</i>
    <i name="AMIX_MAG">      1.60000000</i>
    <i name="BMIX_MAG">      1.00000000</i>
    <separator name="electronic mixer details" >
     <i type="int" name="IMIX">     4</i>
     <i type="logical" name="MIXFIRST"> F  </i>
     <i type="int" name="MAXMIX">    50</i>
     <i name="WC">    100.00000000</i>
     <i type="int" name="INIMIX">     1</i>
     <i type="int" name="MIXPRE">     1</i>
     <i type="int" name="MREMOVE">     5</i>
    </separator>
   </separator>
   <separator name="electronic dipolcorrection" >
    <i type="logical" name="LDIPOL"> F  </i>
    <i type="logical" name="LMONO"> F  </i>
    <i type="int" name="IDIPOL">     0</i>
    <i name="EPSILON">      1.00000000</i>
    <v name="DIPOL">   -100.00000000   -100.00000000   -100.00000000</v>
    <i name="EFIELD">      0.00000000</i>
   </separator>
  </separator>
  <separator name="grids" >
   <i type="int" name="NGX">    24</i>
   <i type="int" name="NGY">    24</i>
   <i type="int" name="NGZ">    24</i>
   <i type="int" name="NGXF">    48</i>
   <i type="int" name="NGYF">    48</i>
   <i type="int" name="NGZF">    48</i>
   <i type="logical" name="ADDGRID"> T  </i>
  </separator>
  <separator name="ionic" >
   <i type="int" name="NSW">     1</i>
   <i type="int" name="IBRION">    -1</i>
   <i type="int" name="MDALGO">     0</i>
   <i type="int" name="ISIF">     3</i>
   <i name="PSTRESS">      0.00000000</i>
   <i name="EDIFFG">      0.00001000</i>
   <i type="int" name="NFREE">     5</i>
   <i name="POTIM">      0.10000000</i>
   <i name="SMASS">     -3.00000000</i>
   <i name="SCALEE">      1.00000000</i>
  </separator>
  <separator name="ionic md" >
   <i name="TEBEG">      0.00010000</i>
   <i name="TEEND">      0.00010000</i>
   <i type="int" name="NBLOCK">     1</i>
   <i type="int" name="KBLOCK">     1</i>
   <i type="int" name="NPACO">   256</i>
   <i name="APACO">     16.00000000</i>
  </separator>
  <separator name="symmetry" >
   <i type="int" name="ISYM">     0</i>
   <i name="SYMPREC">      0.00000010</i>
  </separator>
  <separator name="dos" >
   <i type="int" name="LORBIT">     0</i>
   <v name="RWIGS">     -1.00000000</v>
   <i type="int" name="NEDOS">   301</i>
   <i name="EMIN">     10.00000000</i>
   <i name="EMAX">    -10.00000000</i>
   <i name="EFERMI">      0.00000000</i>
  </separator>
  <separator name="writing" >
   <i type="int" name="NWRITE">     2</i>
   <i type="logical" name="LWAVE"> T  </i>
   <i type="logical" name="LDOWNSAMPLE"> F  </i>
   <i type="logical" name="LCHARG"> F  </i>
   <i type="logical" name="LPARD"> F  </i>
   <i type="logical" name="LVTOT"> F  </i>
   <i type="logical" name="LVHAR"> F  </i>
   <i type="logical" name="LELF"> F  </i>
   <i type="logical" name="LOPTICS"> T  </i>
   <v name="STM">      0.00000000      0.00000000      0.00000000      0.00000000      0.00000000      0.00000000      0.00000000</v>
  </separator>
  <separator name="performance" >
   <i type="int" name="NPAR">     4</i>
   <i type="int" name="NSIM">     4</i>
   <i type="int" name="NBLK">    -1</i>
   <i type="logical" name="LPLANE"> T  </i>
   <i type="logical" name="LSCALAPACK"> T  </i>
   <i type="logical" name="LSCAAWARE"> F  </i>
   <i type="logical" name="LSCALU"> F  </i>
   <i type="logical" name="LASYNC"> F  </i>
   <i type="logical" name="LORBITALREAL"> F  </i>
  </separator>
  <separator name="miscellaneous" >
   <i type="int" name="IDIOT">     3</i>
   <i type="int" name="ISPECIAL">     0</i>
   <i type="logical" name="LMUSIC"> F  </i>
   <v name="POMASS">     83.80000000</v>
   <v name="DARWINR">      0.00000000</v>
   <v name="DARWINV">      1.00000000</v>
   <i type="logical" name="LCORR"> T  </i>
  </separator>
  <i type="logical" name="GGA_COMPAT"> F  </i>
  <i type="logical" name="LBERRY"> F  </i>
  <i type="int" name="ICORELEVEL">     0</i>
  <i type="logical" name="LDAU"> F  </i>
  <i type="int" name="I_CONSTRAINED_M">     0</i>
  <separator name="electronic exchange-correlation" >
   <i type="string" name="GGA">--</i>
   <i type="int" name="VOSKOWN">     0</i>
   <i type="logical" name="LHFCALC"> F  </i>
   <i type="string" name="PRECFOCK"></i>
   <i type="logical" name="LSYMGRAD"> F  </i>
   <i type="logical" name="LHFONE"> F  </i>
   <i type="logical" name="LRHFCALC"> F  </i>
   <i type="logical" name="LTHOMAS"> F  </i>
   <i type="logical" name="LMODELHF"> F  </i>
   <i name="ENCUT4O">     -1.00000000</i>
   <i type="int" name="EXXOEP">     0</i>
   <i type="int" name="FOURORBIT">     0</i>
   <i name="AEXX">      0.00000000</i>
   <i name="HFALPHA">      0.00000000</i>
   <i name="MCALPHA">      0.00000000</i>
   <i name="ALDAX">      1.00000000</i>
   <i name="AGGAX">      1.00000000</i>
   <i name="ALDAC">      1.00000000</i>
   <i name="AGGAC">      1.00000000</i>
   <i type="int" name="NKREDX">     1</i>
   <i type="int" name="NKREDY">     1</i>
   <i type="int" name="NKREDZ">     1</i>
   <i type="logical" name="SHIFTRED"> F  </i>
   <i type="logical" name="ODDONLY"> F  </i>
   <i type="logical" name="EVENONLY"> F  </i>
   <i type="int" name="LMAXFOCK">     0</i>
   <i type="int" name="NMAXFOCKAE">     0</i>
   <i type="logical" name="LFOCKAEDFT"> F  </i>
   <i name="HFSCREEN">      0.00000000</i>
   <i name="HFSCREENC">      0.00000000</i>
   <i type="int" name="NBANDSGWLOW">     0</i>
  </separator>
  <separator name="vdW DFT" >
   <i type="logical" name="LUSE_VDW"> F  </i>
   <i name="Zab_VDW">     -0.84910000</i>
   <i name="PARAM1">      0.12340000</i>
   <i name="PARAM2">      1.00000000</i>
   <i name="PARAM3">      0.00000000</i>
  </separator>
  <separator name="model GW" >
   <i type="int" name="MODEL_GW">     0</i>
   <i name="MODEL_EPS0">     27.34343180</i>
   <i name="MODEL_ALPHA">      1.00000000</i>
  </separator>
  <separator name="linear response parameters" >
   <i type="logical" name="LEPSILON"> F  </i>
   <i type="logical" name="LRPA"> F  </i>
   <i type="logical" name="LNABLA"> F  </i>
   <i type="logical" name="LVEL"> F  </i>
   <i type="int" name="KINTER">     0</i>
   <i name="CSHIFT">      0.10000000</i>
   <i name="OMEGAMAX">     -1.00000000</i>
   <i name="DEG_THRESHOLD">      0.00200000</i>
   <i name="RTIME">     -0.10000000</i>
   <i name="WPLASMAI">      0.00000000</i>
   <v name="DFIELD">      0.00000000      0.00000000      0.00000000</v>
   <v name="WPLASMA">      0.00000000      0.00000000      0.00000000      0.00000000      0.00000000      0.00000000      0.00000000      0.00000000      0.00000000</v>
  </separator>
  <separator name="orbital magnetization" >
   <i type="logical" name="NUCIND"> F  </i>
   <v name="MAGPOS">      0.00000000      0.00000000      0.00000000</v>
   <i type="logical" name="LNICSALL"> T  </i>
   <i type="logical" name="ORBITALMAG"> F  </i>
   <i type="logical" name="LMAGBLOCH"> F  </i>
   <i type="logical" name="LCHIMAG"> F  </i>
   <i type="logical" name="LGAUGE"> T  </i>
   <i type="int" name="MAGATOM">     0</i>
   <v name="MAGDIPOL">      0.00000000      0.00000000      0.00000000</v>
   <v name="AVECCONST">      0.00000000      0.00000000      0.00000000</v>
  </separator>
  <separator name="response functions" >
   <i type="logical" name="LADDER"> F  </i>
   <i type="logical" name="LRPAFORCE"> F  </i>
   <i type="logical" name="LFXC"> F  </i>
   <i type="logical" name="LHARTREE"> T  </i>
   <i type="int" name="IBSE">     0</i>
   <v type="int" name="KPOINT">    -1     0     0     0</v>
   <i type="logical" name="LTCTE"> F  </i>
   <i type="logical" name="LTETE"> F  </i>
   <i type="logical" name="LTRIPLET"> F  </i>
   <i type="logical" name="LFXCEPS"> F  </i>
   <i type="logical" name="LFXHEG"> F  </i>
   <i type="int" name="NATURALO">     2</i>
   <i type="logical" name="L2ORDER"> F  </i>
   <i type="logical" name="LMP2LT"> F  </i>
   <i type="logical" name="LUSEW"> F  </i>
   <i name="ENCUTGW">     -2.00000000</i>
   <i name="ENCUTGWSOFT">     -2.00000000</i>
   <i name="ENCUTLF">     -1.00000000</i>
   <i type="int" name="LMAXMP2">    -1</i>
   <i name="SCISSOR">      0.00000000</i>
   <i type="int" name="NOMEGA">     0</i>
   <i type="int" name="NOMEGAR">     0</i>
   <i type="int" name="NBANDSGW">    -1</i>
   <i type="int" name="NBANDSO">    -1</i>
   <i type="int" name="NBANDSV">    -1</i>
   <i type="int" name="NELM">    50</i>
   <i type="int" name="NELMHF">     1</i>
   <i type="int" name="DIM">     3</i>
   <i type="int" name="ANTIRES">     0</i>
   <i name="OMEGAMAX">    -30.00000000</i>
   <i name="OMEGAMIN">    -30.00000000</i>
   <i name="OMEGATL">   -200.00000000</i>
   <i type="int" name="OMEGAGRID">   140</i>
   <i name="CSHIFT">     -0.10000000</i>
   <i type="logical" name="SELFENERGY"> F  </i>
   <i type="logical" name="LSPECTRAL"> F  </i>
   <i type="logical" name="LSPECTRALGW"> F  </i>
   <i type="logical" name="LSINGLES"> F  </i>
   <i type="logical" name="LFERMIGW"> F  </i>
   <i type="logical" name="ODDONLYGW"> F  </i>
   <i type="logical" name="EVENONLYGW"> F  </i>
   <i type="int" name="NKREDLFX">     1</i>
   <i type="int" name="NKREDLFY">     1</i>
   <i type="int" name="NKREDLFZ">     1</i>
   <i type="int" name="MAXMEM">  2800</i>
   <i type="int" name="TELESCOPE">     0</i>
   <i type="int" name="TAUPAR">     1</i>
   <i type="int" name="OMEGAPAR">    -1</i>
   <i name="LAMBDA">      1.00000000</i>
  </separator>
  <separator name="External order field" >
   <i name="OFIELD_KAPPA">      0.00000000</i>
   <v name="OFIELD_K">      0.00000000      0.00000000      0.00000000</v>
   <i name="OFIELD_Q6_NEAR">      0.00000000</i>
   <i name="OFIELD_Q6_FAR">      0.00000000</i>
   <i name="OFIELD_A">      0.00000000</i>
  </separator>
 </parameters>
 <atominfo>
  <atoms>       1 </atoms>
  <types>       1 </types>
  <array name="atoms" >
   <dimension dim="1">ion</dimension>
   <field type="string">element</field>
   <field type="int">atomtype</field>
   <set>
    <rc><c>Kr</c><c>   1</c></rc>
   </set>
  </array>
  <array name="atomtypes" >
   <dimension dim="1">type</dimension>
   <field type="int">atomspertype</field>
   <field type="string">element</field>
   <field>mass</field>
   <field>valence</field>
   <field type="string">pseudopotential</field>
   <set>
    <rc><c>   1</c><c>Kr</c><c>     83.80000000</c><c>      8.00000000</c><c>  PAW_PBE Kr_GW 21Aug2013               </c></rc>
   </set>
  </array>
 </atominfo>
 <structure name="initialpos" >
  <crystal>
   <varray name="basis" >
    <v>       4.00933418       0.00000000       0.00000000 </v>
    <v>       2.00466709       3.47218525      -0.00000000 </v>
    <v>       2.00466709       1.15739508       3.27360765 </v>
   </varray>
   <i name="volume">     45.57238633 </i>
   <varray name="rec_basis" >
    <v>       0.24941797      -0.14400153      -0.10182446 </v>
    <v>       0.00000000       0.28800307      -0.10182446 </v>
    <v>      -0.00000000       0.00000000       0.30547338 </v>
   </varray>
  </crystal>
  <varray name="positions" >
   <v>       0.00000000       0.00000000       0.00000000 </v>
  </varray>
  <varray name="velocities" >
   <v>       0.00000000       0.00000000       0.00000000 </v>
  </varray>
 </structure>
 <calculation>
  <scstep>
   <time name="dav">    1.68    1.67</time>
   <time name="total">    1.76    1.76</time>
   <energy>
    <i name="alphaZ">      9.21045435 </i>
    <i name="ewald">   -372.60190661 </i>
    <i name="hartreedc">   -100.95635752 </i>
    <i name="XCdc">     22.39997768 </i>
    <i name="pawpsdc">    404.23238381 </i>
    <i name="pawaedc">   -420.18783081 </i>
    <i name="eentropy">      0.00000000 </i>
    <i name="bandstr">    -67.81335434 </i>
    <i name="atom">    506.70785905 </i>
    <i name="e_fr_energy">    -19.00877441 </i>
    <i name="e_wo_entrp">    -19.00877441 </i>
    <i name="e_0_energy">    -19.00877441 </i>
   </energy>
  </scstep>
  <scstep>
   <time name="dav">    1.80    1.80</time>
   <time name="total">    1.80    1.80</time>
   <energy>
    <i name="e_fr_energy">    -19.00877441 </i>
    <i name="e_wo_entrp">    -19.00877441 </i>
    <i name="e_0_energy">    -19.00877441 </i>
   </energy>
  </scstep>
  <scstep>
   <time name="dav">    1.85    1.85</time>
   <time name="total">    1.85    1.85</time>
   <energy>
    <i name="e_fr_energy">    -19.00877441 </i>
    <i name="e_wo_entrp">    -19.00877441 </i>
    <i name="e_0_energy">    -19.00877441 </i>
   </energy>
  </scstep>
  <scstep>
   <time name="dav">    1.84    1.84</time>
   <time name="total">    1.84    1.84</time>
   <energy>
    <i name="e_fr_energy">    -19.00877441 </i>
    <i name="e_wo_entrp">    -19.00877441 </i>
    <i name="e_0_energy">    -19.00877441 </i>
   </energy>
  </scstep>
  <scstep>
   <time name="dav">    1.84    1.84</time>
   <time name="total">    2.38    2.38</time>
   <energy>
    <i name="e_fr_energy">    -19.00877441 </i>
    <i name="e_wo_entrp">    -19.00877441 </i>
    <i name="e_0_energy">    -19.00877441 </i>
   </energy>
  </scstep>
  <scstep>
   <time name="dav">    1.86    1.86</time>
   <time name="total">    1.94    1.94</time>
   <energy>
    <i name="alphaZ">      9.21045435 </i>
    <i name="ewald">   -372.60190661 </i>
    <i name="hartreedc">   -100.95635799 </i>
    <i name="XCdc">     22.39997772 </i>
    <i name="pawpsdc">    404.23238640 </i>
    <i name="pawaedc">   -420.18783342 </i>
    <i name="eentropy">      0.00000000 </i>
    <i name="bandstr">    -67.81335390 </i>
    <i name="atom">    506.70785905 </i>
    <i name="e_fr_energy">    -19.00877441 </i>
    <i name="e_wo_entrp">    -19.00877441 </i>
    <i name="e_0_energy">    -19.00877441 </i>
   </energy>
  </scstep>
  <structure>
   <crystal>
    <varray name="basis" >
     <v>       4.00933418       0.00000000       0.00000000 </v>
     <v>       2.00466709       3.47218525      -0.00000000 </v>
     <v>       2.00466709       1.15739508       3.27360765 </v>
    </varray>
    <i name="volume">     45.57238633 </i>
    <varray name="rec_basis" >
     <v>       0.24941797      -0.14400153      -0.10182446 </v>
     <v>       0.00000000       0.28800307      -0.10182446 </v>
     <v>      -0.00000000       0.00000000       0.30547338 </v>
    </varray>
   </crystal>
   <varray name="positions" >
    <v>       0.00000000       0.00000000       0.00000000 </v>
   </varray>
  </structure>
  <varray name="forces" >
   <v>      -0.00000000      -0.00000000       0.00000001 </v>
  </varray>
  <varray name="stress" >
   <v>       0.44569777       0.00010243       0.00007161 </v>
   <v>       0.00010252       0.44552224      -0.00000403 </v>
   <v>       0.00007179      -0.00000377       0.44552285 </v>
  </varray>
  <energy>
   <i name="e_fr_energy">    -19.00877441 </i>
   <i name="e_wo_entrp">    -19.00877441 </i>
   <i name="e_0_energy">      0.00000000 </i>
  </energy>
  <time name="totalsc">   22.06   22.17</time>
  <eigenvalues>
   <array>
    <dimension dim="1">band</dimension>
    <dimension dim="2">kpoint</dimension>
    <dimension dim="3">spin</dimension>
    <field>eigene</field>
    <field>occ</field>
    <set>
     <set comment="spin 1">
      <set comment="kpoint 1">
       <r>  -19.4138    1.0000 </r>
       <r>  -19.4138    1.0000 </r>
       <r>   -4.7522    1.0000 </r>
       <r>   -4.7522    1.0000 </r>
       <r>   -4.0493    1.0000 </r>
       <r>   -4.0493    1.0000 </r>
       <r>   -4.0493    1.0000 </r>
       <r>   -4.0493    1.0000 </r>
       <r>    3.7491    0.0000 </r>
       <r>    3.7491    0.0000 </r>
       <r>   10.3225    0.0000 </r>
       <r>   10.3225    0.0000 </r>
       <r>   10.3225    0.0000 </r>
       <r>   10.3225    0.0000 </r>
       <r>   10.3414    0.0000 </r>
       <r>   10.3414    0.0000 </r>
       <r>   12.8899    0.0000 </r>
       <r>   12.8899    0.0000 </r>
       <r>   12.8899    0.0000 </r>
       <r>   12.8916    0.0000 </r>
      </set>
      <set comment="kpoint 2">
       <r>  -19.3687    1.0000 </r>
       <r>  -19.3687    1.0000 </r>
       <r>   -4.9563    1.0000 </r>
       <r>   -4.9563    1.0000 </r>
       <r>   -4.3072    1.0000 </r>
       <r>   -4.3072    1.0000 </r>
       <r>   -4.0940    1.0000 </r>
       <r>   -4.0940    1.0000 </r>
       <r>    4.4904    0.0000 </r>
       <r>    4.4904    0.0000 </r>
       <r>    9.3986    0.0000 </r>
       <r>    9.3986    0.0000 </r>
       <r>   10.5511    0.0000 </r>
       <r>   10.5511    0.0000 </r>
       <r>   10.5687    0.0000 </r>
       <r>   10.5687    0.0000 </r>
       <r>   12.3415    0.0000 </r>
       <r>   12.3415    0.0000 </r>
       <r>   12.3534    0.0000 </r>
       <r>   12.3534    0.0000 </r>
      </set>
      <set comment="kpoint 3">
       <r>  -19.2762    1.0000 </r>
       <r>  -19.2762    1.0000 </r>
       <r>   -5.5188    1.0000 </r>
       <r>   -5.5188    1.0000 </r>
       <r>   -4.5428    1.0000 </r>
       <r>   -4.5428    1.0000 </r>
       <r>   -4.1806    1.0000 </r>
       <r>   -4.1806    1.0000 </r>
       <r>    5.7753    0.0000 </r>
       <r>    5.7753    0.0000 </r>
       <r>    8.7313    0.0000 </r>
       <r>    8.7313    0.0000 </r>
       <r>   10.1871    0.0000 </r>
       <r>   10.1871    0.0000 </r>
       <r>   10.2069    0.0000 </r>
       <r>   10.2069    0.0000 </r>
       <r>   13.3017    0.0000 </r>
       <r>   13.3025    0.0000 </r>
       <r>   13.3248    0.0000 </r>
       <r>   13.3261    0.0000 </r>
      </set>
      <set comment="kpoint 4">
       <r>  -19.2287    1.0000 </r>
       <r>  -19.2287    1.0000 </r>
       <r>   -5.8092    1.0000 </r>
       <r>   -5.8092    1.0000 </r>
       <r>   -4.6089    1.0000 </r>
       <r>   -4.6089    1.0000 </r>
       <r>   -4.2226    1.0000 </r>
       <r>   -4.2226    1.0000 </r>
       <r>    6.1703    0.0000 </r>
       <r>    6.1703    0.0000 </r>
       <r>    8.9018    0.0000 </r>
       <r>    8.9018    0.0000 </r>
       <r>    9.8752    0.0000 </r>
       <r>    9.8752    0.0000 </r>
       <r>    9.8942    0.0000 </r>
       <r>    9.8942    0.0000 </r>
       <r>   13.6308    0.0000 </r>
       <r>   13.6308    0.0000 </r>
       <r>   14.9170    0.0000 </r>
       <r>   14.9271    0.0000 </r>
      </set>
      <set comment="kpoint 5">
       <r>  -19.2762    1.0000 </r>
       <r>  -19.2762    1.0000 </r>
       <r>   -5.5188    1.0000 </r>
       <r>   -5.5188    1.0000 </r>
       <r>   -4.5428    1.0000 </r>
       <r>   -4.5428    1.0000 </r>
       <r>   -4.1806    1.0000 </r>
       <r>   -4.1806    1.0000 </r>
       <r>    5.7753    0.0000 </r>
       <r>    5.7753    0.0000 </r>
       <r>    8.7313    0.0000 </r>
       <r>    8.7313    0.0000 </r>
       <r>   10.1871    0.0000 </r>
       <r>   10.1871    0.0000 </r>
       <r>   10.2069    0.0000 </r>
       <r>   10.2069    0.0000 </r>
       <r>   13.3016    0.0000 </r>
       <r>   13.3017    0.0000 </r>
       <r>   13.3245    0.0000 </r>
       <r>   13.3250    0.0000 </r>
      </set>
      <set comment="kpoint 6">
       <r>  -19.3687    1.0000 </r>
       <r>  -19.3687    1.0000 </r>
       <r>   -4.9563    1.0000 </r>
       <r>   -4.9563    1.0000 </r>
       <r>   -4.3072    1.0000 </r>
       <r>   -4.3072    1.0000 </r>
       <r>   -4.0940    1.0000 </r>
       <r>   -4.0940    1.0000 </r>
       <r>    4.4904    0.0000 </r>
       <r>    4.4904    0.0000 </r>
       <r>    9.3986    0.0000 </r>
       <r>    9.3986    0.0000 </r>
       <r>   10.5511    0.0000 </r>
       <r>   10.5511    0.0000 </r>
       <r>   10.5687    0.0000 </r>
       <r>   10.5687    0.0000 </r>
       <r>   12.3415    0.0000 </r>
       <r>   12.3415    0.0000 </r>
       <r>   12.3534    0.0000 </r>
       <r>   12.3534    0.0000 </r>
      </set>
      <set comment="kpoint 7">
       <r>  -19.3687    1.0000 </r>
       <r>  -19.3687    1.0000 </r>
       <r>   -4.9563    1.0000 </r>
       <r>   -4.9563    1.0000 </r>
       <r>   -4.3072    1.0000 </r>
       <r>   -4.3072    1.0000 </r>
       <r>   -4.0940    1.0000 </r>
       <r>   -4.0940    1.0000 </r>
       <r>    4.4904    0.0000 </r>
       <r>    4.4904    0.0000 </r>
       <r>    9.3986    0.0000 </r>
       <r>    9.3986    0.0000 </r>
       <r>   10.5511    0.0000 </r>
       <r>   10.5511    0.0000 </r>
       <r>   10.5687    0.0000 </r>
       <r>   10.5687    0.0000 </r>
       <r>   12.3415    0.0000 </r>
       <r>   12.3415    0.0000 </r>
       <r>   12.3534    0.0000 </r>
       <r>   12.3534    0.0000 </r>
      </set>
      <set comment="kpoint 8">
       <r>  -19.3538    1.0000 </r>
       <r>  -19.3538    1.0000 </r>
       <r>   -4.9835    1.0000 </r>
       <r>   -4.9835    1.0000 </r>
       <r>   -4.3526    1.0000 </r>
       <r>   -4.3526    1.0000 </r>
       <r>   -4.1832    1.0000 </r>
       <r>   -4.1832    1.0000 </r>
       <r>    4.7254    0.0000 </r>
       <r>    4.7254    0.0000 </r>
       <r>    9.0387    0.0000 </r>
       <r>    9.0387    0.0000 </r>
       <r>   10.7819    0.0000 </r>
       <r>   10.7819    0.0000 </r>
       <r>   10.8685    0.0000 </r>
       <r>   10.8685    0.0000 </r>
       <r>   10.8961    0.0000 </r>
       <r>   10.8961    0.0000 </r>
       <r>   13.2781    0.0000 </r>
       <r>   13.2781    0.0000 </r>
      </set>
      <set comment="kpoint 9">
       <r>  -19.2771    1.0000 </r>
       <r>  -19.2771    1.0000 </r>
       <r>   -5.3613    1.0000 </r>
       <r>   -5.3613    1.0000 </r>
       <r>   -4.6043    1.0000 </r>
       <r>   -4.6043    1.0000 </r>
       <r>   -4.2969    1.0000 </r>
       <r>   -4.2969    1.0000 </r>
       <r>    5.8694    0.0000 </r>
       <r>    5.8694    0.0000 </r>
       <r>    8.3875    0.0000 </r>
       <r>    8.3875    0.0000 </r>
       <r>    9.4512    0.0000 </r>
       <r>    9.4512    0.0000 </r>
       <r>   11.0149    0.0000 </r>
       <r>   11.0149    0.0000 </r>
       <r>   12.1851    0.0000 </r>
       <r>   12.1851    0.0000 </r>
       <r>   13.9857    0.0000 </r>
       <r>   13.9857    0.0000 </r>
      </set>
      <set comment="kpoint 10">
       <r>  -19.2140    1.0000 </r>
       <r>  -19.2140    1.0000 </r>
       <r>   -5.6896    1.0000 </r>
       <r>   -5.6896    1.0000 </r>
       <r>   -4.7539    1.0000 </r>
       <r>   -4.7539    1.0000 </r>
       <r>   -4.3751    1.0000 </r>
       <r>   -4.3751    1.0000 </r>
       <r>    6.7317    0.0000 </r>
       <r>    6.7317    0.0000 </r>
       <r>    8.0727    0.0000 </r>
       <r>    8.0727    0.0000 </r>
       <r>    9.4530    0.0000 </r>
       <r>    9.4530    0.0000 </r>
       <r>   10.5359    0.0000 </r>
       <r>   10.5359    0.0000 </r>
       <r>   13.7187    0.0000 </r>
       <r>   13.7187    0.0000 </r>
       <r>   15.0129    0.0000 </r>
       <r>   15.0206    0.0000 </r>
      </set>
      <set comment="kpoint 11">
       <r>  -19.2297    1.0000 </r>
       <r>  -19.2297    1.0000 </r>
       <r>   -5.6036    1.0000 </r>
       <r>   -5.6036    1.0000 </r>
       <r>   -4.7611    1.0000 </r>
       <r>   -4.7611    1.0000 </r>
       <r>   -4.3258    1.0000 </r>
       <r>   -4.3258    1.0000 </r>
       <r>    6.6820    0.0000 </r>
       <r>    6.6820    0.0000 </r>
       <r>    8.3117    0.0000 </r>
       <r>    8.3117    0.0000 </r>
       <r>    9.2066    0.0000 </r>
       <r>    9.2066    0.0000 </r>
       <r>   10.4800    0.0000 </r>
       <r>   10.4800    0.0000 </r>
       <r>   12.9625    0.0000 </r>
       <r>   12.9625    0.0000 </r>
       <r>   15.2228    0.0000 </r>
       <r>   15.2323    0.0000 </r>
      </set>
      <set comment="kpoint 12">
       <r>  -19.3077    1.0000 </r>
       <r>  -19.3077    1.0000 </r>
       <r>   -5.2316    1.0000 </r>
       <r>   -5.2316    1.0000 </r>
       <r>   -4.5481    1.0000 </r>
       <r>   -4.5481    1.0000 </r>
       <r>   -4.1990    1.0000 </r>
       <r>   -4.1990    1.0000 </r>
       <r>    5.4906    0.0000 </r>
       <r>    5.4906    0.0000 </r>
       <r>    8.8221    0.0000 </r>
       <r>    8.8221    0.0000 </r>
       <r>    9.7641    0.0000 </r>
       <r>    9.7641    0.0000 </r>
       <r>   11.1035    0.0000 </r>
       <r>   11.1035    0.0000 </r>
       <r>   11.2348    0.0000 </r>
       <r>   11.2348    0.0000 </r>
       <r>   13.6489    0.0000 </r>
       <r>   13.6489    0.0000 </r>
      </set>
      <set comment="kpoint 13">
       <r>  -19.2762    1.0000 </r>
       <r>  -19.2762    1.0000 </r>
       <r>   -5.5188    1.0000 </r>
       <r>   -5.5188    1.0000 </r>
       <r>   -4.5428    1.0000 </r>
       <r>   -4.5428    1.0000 </r>
       <r>   -4.1806    1.0000 </r>
       <r>   -4.1806    1.0000 </r>
       <r>    5.7753    0.0000 </r>
       <r>    5.7753    0.0000 </r>
       <r>    8.7313    0.0000 </r>
       <r>    8.7313    0.0000 </r>
       <r>   10.1871    0.0000 </r>
       <r>   10.1871    0.0000 </r>
       <r>   10.2069    0.0000 </r>
       <r>   10.2069    0.0000 </r>
       <r>   13.3016    0.0000 </r>
       <r>   13.3017    0.0000 </r>
       <r>   13.3245    0.0000 </r>
       <r>   13.3248    0.0000 </r>
      </set>
      <set comment="kpoint 14">
       <r>  -19.2771    1.0000 </r>
       <r>  -19.2771    1.0000 </r>
       <r>   -5.3613    1.0000 </r>
       <r>   -5.3613    1.0000 </r>
       <r>   -4.6043    1.0000 </r>
       <r>   -4.6043    1.0000 </r>
       <r>   -4.2969    1.0000 </r>
       <r>   -4.2969    1.0000 </r>
       <r>    5.8694    0.0000 </r>
       <r>    5.8694    0.0000 </r>
       <r>    8.3875    0.0000 </r>
       <r>    8.3875    0.0000 </r>
       <r>    9.4512    0.0000 </r>
       <r>    9.4512    0.0000 </r>
       <r>   11.0149    0.0000 </r>
       <r>   11.0149    0.0000 </r>
       <r>   12.1851    0.0000 </r>
       <r>   12.1851    0.0000 </r>
       <r>   13.9857    0.0000 </r>
       <r>   13.9857    0.0000 </r>
      </set>
      <set comment="kpoint 15">
       <r>  -19.2314    1.0000 </r>
       <r>  -19.2314    1.0000 </r>
       <r>   -5.4820    1.0000 </r>
       <r>   -5.4820    1.0000 </r>
       <r>   -4.7379    1.0000 </r>
       <r>   -4.7379    1.0000 </r>
       <r>   -4.4370    1.0000 </r>
       <r>   -4.4370    1.0000 </r>
       <r>    5.9958    0.0000 </r>
       <r>    5.9958    0.0000 </r>
       <r>    7.6803    0.0000 </r>
       <r>    7.6803    0.0000 </r>
       <r>    9.5352    0.0000 </r>
       <r>    9.5352    0.0000 </r>
       <r>   12.4273    0.0000 </r>
       <r>   12.4273    0.0000 </r>
       <r>   12.4997    0.0000 </r>
       <r>   12.4997    0.0000 </r>
       <r>   14.2693    0.0000 </r>
       <r>   14.2693    0.0000 </r>
      </set>
      <set comment="kpoint 16">
       <r>  -19.1842    1.0000 </r>
       <r>  -19.1842    1.0000 </r>
       <r>   -5.6218    1.0000 </r>
       <r>   -5.6218    1.0000 </r>
       <r>   -4.9008    1.0000 </r>
       <r>   -4.9008    1.0000 </r>
       <r>   -4.5530    1.0000 </r>
       <r>   -4.5530    1.0000 </r>
       <r>    6.3150    0.0000 </r>
       <r>    6.3150    0.0000 </r>
       <r>    7.6478    0.0000 </r>
       <r>    7.6478    0.0000 </r>
       <r>    9.6587    0.0000 </r>
       <r>    9.6587    0.0000 </r>
       <r>   12.3110    0.0000 </r>
       <r>   12.3110    0.0000 </r>
       <r>   13.4994    0.0000 </r>
       <r>   13.4994    0.0000 </r>
       <r>   15.2711    0.0000 </r>
       <r>   15.2717    0.0000 </r>
      </set>
      <set comment="kpoint 17">
       <r>  -19.1834    1.0000 </r>
       <r>  -19.1834    1.0000 </r>
       <r>   -5.5515    1.0000 </r>
       <r>   -5.5515    1.0000 </r>
       <r>   -5.0626    1.0000 </r>
       <r>   -5.0626    1.0000 </r>
       <r>   -4.5066    1.0000 </r>
       <r>   -4.5066    1.0000 </r>
       <r>    7.1353    0.0000 </r>
       <r>    7.1353    0.0000 </r>
       <r>    7.8601    0.0000 </r>
       <r>    7.8601    0.0000 </r>
       <r>    9.2061    0.0000 </r>
       <r>    9.2061    0.0000 </r>
       <r>   11.4210    0.0000 </r>
       <r>   11.4210    0.0000 </r>
       <r>   13.1662    0.0000 </r>
       <r>   13.1662    0.0000 </r>
       <r>   13.6776    0.0000 </r>
       <r>   13.6776    0.0000 </r>
      </set>
      <set comment="kpoint 18">
       <r>  -19.2297    1.0000 </r>
       <r>  -19.2297    1.0000 </r>
       <r>   -5.6036    1.0000 </r>
       <r>   -5.6036    1.0000 </r>
       <r>   -4.7611    1.0000 </r>
       <r>   -4.7611    1.0000 </r>
       <r>   -4.3258    1.0000 </r>
       <r>   -4.3258    1.0000 </r>
       <r>    6.6820    0.0000 </r>
       <r>    6.6820    0.0000 </r>
       <r>    8.3117    0.0000 </r>
       <r>    8.3117    0.0000 </r>
       <r>    9.2066    0.0000 </r>
       <r>    9.2066    0.0000 </r>
       <r>   10.4800    0.0000 </r>
       <r>   10.4800    0.0000 </r>
       <r>   12.9625    0.0000 </r>
       <r>   12.9625    0.0000 </r>
       <r>   15.2224    0.0000 </r>
       <r>   15.2269    0.0000 </r>
      </set>
      <set comment="kpoint 19">
       <r>  -19.2287    1.0000 </r>
       <r>  -19.2287    1.0000 </r>
       <r>   -5.8092    1.0000 </r>
       <r>   -5.8092    1.0000 </r>
       <r>   -4.6089    1.0000 </r>
       <r>   -4.6089    1.0000 </r>
       <r>   -4.2226    1.0000 </r>
       <r>   -4.2226    1.0000 </r>
       <r>    6.1703    0.0000 </r>
       <r>    6.1703    0.0000 </r>
       <r>    8.9018    0.0000 </r>
       <r>    8.9018    0.0000 </r>
       <r>    9.8752    0.0000 </r>
       <r>    9.8752    0.0000 </r>
       <r>    9.8942    0.0000 </r>
       <r>    9.8942    0.0000 </r>
       <r>   13.6308    0.0000 </r>
       <r>   13.6308    0.0000 </r>
       <r>   14.9170    0.0000 </r>
       <r>   14.9248    0.0000 </r>
      </set>
      <set comment="kpoint 20">
       <r>  -19.2140    1.0000 </r>
       <r>  -19.2140    1.0000 </r>
       <r>   -5.6896    1.0000 </r>
       <r>   -5.6896    1.0000 </r>
       <r>   -4.7539    1.0000 </r>
       <r>   -4.7539    1.0000 </r>
       <r>   -4.3751    1.0000 </r>
       <r>   -4.3751    1.0000 </r>
       <r>    6.7317    0.0000 </r>
       <r>    6.7317    0.0000 </r>
       <r>    8.0727    0.0000 </r>
       <r>    8.0727    0.0000 </r>
       <r>    9.4530    0.0000 </r>
       <r>    9.4530    0.0000 </r>
       <r>   10.5359    0.0000 </r>
       <r>   10.5359    0.0000 </r>
       <r>   13.7187    0.0000 </r>
       <r>   13.7187    0.0000 </r>
       <r>   15.0124    0.0000 </r>
       <r>   15.0136    0.0000 </r>
      </set>
      <set comment="kpoint 21">
       <r>  -19.1842    1.0000 </r>
       <r>  -19.1842    1.0000 </r>
       <r>   -5.6218    1.0000 </r>
       <r>   -5.6218    1.0000 </r>
       <r>   -4.9008    1.0000 </r>
       <r>   -4.9008    1.0000 </r>
       <r>   -4.5530    1.0000 </r>
       <r>   -4.5530    1.0000 </r>
       <r>    6.3150    0.0000 </r>
       <r>    6.3150    0.0000 </r>
       <r>    7.6478    0.0000 </r>
       <r>    7.6478    0.0000 </r>
       <r>    9.6587    0.0000 </r>
       <r>    9.6587    0.0000 </r>
       <r>   12.3110    0.0000 </r>
       <r>   12.3110    0.0000 </r>
       <r>   13.4994    0.0000 </r>
       <r>   13.4994    0.0000 </r>
       <r>   15.2709    0.0000 </r>
       <r>   15.2710    0.0000 </r>
      </set>
      <set comment="kpoint 22">
       <r>  -19.1690    1.0000 </r>
       <r>  -19.1690    1.0000 </r>
       <r>   -5.7187    1.0000 </r>
       <r>   -5.7187    1.0000 </r>
       <r>   -4.8810    1.0000 </r>
       <r>   -4.8810    1.0000 </r>
       <r>   -4.5576    1.0000 </r>
       <r>   -4.5576    1.0000 </r>
       <r>    5.8130    0.0000 </r>
       <r>    5.8130    0.0000 </r>
       <r>    7.1999    0.0000 </r>
       <r>    7.1999    0.0000 </r>
       <r>   10.5980    0.0000 </r>
       <r>   10.5980    0.0000 </r>
       <r>   14.4048    0.0000 </r>
       <r>   14.4048    0.0000 </r>
       <r>   14.5577    0.0000 </r>
       <r>   14.5577    0.0000 </r>
       <r>   14.9701    0.0000 </r>
       <r>   14.9703    0.0000 </r>
      </set>
      <set comment="kpoint 23">
       <r>  -19.1842    1.0000 </r>
       <r>  -19.1842    1.0000 </r>
       <r>   -5.6218    1.0000 </r>
       <r>   -5.6218    1.0000 </r>
       <r>   -4.9008    1.0000 </r>
       <r>   -4.9008    1.0000 </r>
       <r>   -4.5530    1.0000 </r>
       <r>   -4.5530    1.0000 </r>
       <r>    6.3150    0.0000 </r>
       <r>    6.3150    0.0000 </r>
       <r>    7.6478    0.0000 </r>
       <r>    7.6478    0.0000 </r>
       <r>    9.6587    0.0000 </r>
       <r>    9.6587    0.0000 </r>
       <r>   12.3110    0.0000 </r>
       <r>   12.3110    0.0000 </r>
       <r>   13.4994    0.0000 </r>
       <r>   13.4994    0.0000 </r>
       <r>   15.2712    0.0000 </r>
       <r>   15.2718    0.0000 </r>
      </set>
      <set comment="kpoint 24">
       <r>  -19.2140    1.0000 </r>
       <r>  -19.2140    1.0000 </r>
       <r>   -5.6896    1.0000 </r>
       <r>   -5.6896    1.0000 </r>
       <r>   -4.7539    1.0000 </r>
       <r>   -4.7539    1.0000 </r>
       <r>   -4.3751    1.0000 </r>
       <r>   -4.3751    1.0000 </r>
       <r>    6.7317    0.0000 </r>
       <r>    6.7317    0.0000 </r>
       <r>    8.0727    0.0000 </r>
       <r>    8.0727    0.0000 </r>
       <r>    9.4530    0.0000 </r>
       <r>    9.4530    0.0000 </r>
       <r>   10.5359    0.0000 </r>
       <r>   10.5359    0.0000 </r>
       <r>   13.7187    0.0000 </r>
       <r>   13.7187    0.0000 </r>
       <r>   15.0116    0.0000 </r>
       <r>   15.0157    0.0000 </r>
      </set>
      <set comment="kpoint 25">
       <r>  -19.2762    1.0000 </r>
       <r>  -19.2762    1.0000 </r>
       <r>   -5.5188    1.0000 </r>
       <r>   -5.5188    1.0000 </r>
       <r>   -4.5428    1.0000 </r>
       <r>   -4.5428    1.0000 </r>
       <r>   -4.1806    1.0000 </r>
       <r>   -4.1806    1.0000 </r>
       <r>    5.7753    0.0000 </r>
       <r>    5.7753    0.0000 </r>
       <r>    8.7313    0.0000 </r>
       <r>    8.7313    0.0000 </r>
       <r>   10.1871    0.0000 </r>
       <r>   10.1871    0.0000 </r>
       <r>   10.2069    0.0000 </r>
       <r>   10.2069    0.0000 </r>
       <r>   13.3016    0.0000 </r>
       <r>   13.3016    0.0000 </r>
       <r>   13.3245    0.0000 </r>
       <r>   13.3245    0.0000 </r>
      </set>
      <set comment="kpoint 26">
       <r>  -19.2297    1.0000 </r>
       <r>  -19.2297    1.0000 </r>
       <r>   -5.6036    1.0000 </r>
       <r>   -5.6036    1.0000 </r>
       <r>   -4.7611    1.0000 </r>
       <r>   -4.7611    1.0000 </r>
       <r>   -4.3258    1.0000 </r>
       <r>   -4.3258    1.0000 </r>
       <r>    6.6820    0.0000 </r>
       <r>    6.6820    0.0000 </r>
       <r>    8.3117    0.0000 </r>
       <r>    8.3117    0.0000 </r>
       <r>    9.2066    0.0000 </r>
       <r>    9.2066    0.0000 </r>
       <r>   10.4800    0.0000 </r>
       <r>   10.4800    0.0000 </r>
       <r>   12.9625    0.0000 </r>
       <r>   12.9625    0.0000 </r>
       <r>   15.2257    0.0000 </r>
       <r>   15.2537    0.0000 </r>
      </set>
      <set comment="kpoint 27">
       <r>  -19.1834    1.0000 </r>
       <r>  -19.1834    1.0000 </r>
       <r>   -5.5515    1.0000 </r>
       <r>   -5.5515    1.0000 </r>
       <r>   -5.0626    1.0000 </r>
       <r>   -5.0626    1.0000 </r>
       <r>   -4.5066    1.0000 </r>
       <r>   -4.5066    1.0000 </r>
       <r>    7.1353    0.0000 </r>
       <r>    7.1353    0.0000 </r>
       <r>    7.8601    0.0000 </r>
       <r>    7.8601    0.0000 </r>
       <r>    9.2061    0.0000 </r>
       <r>    9.2061    0.0000 </r>
       <r>   11.4210    0.0000 </r>
       <r>   11.4210    0.0000 </r>
       <r>   13.1662    0.0000 </r>
       <r>   13.1662    0.0000 </r>
       <r>   13.6776    0.0000 </r>
       <r>   13.6776    0.0000 </r>
      </set>
      <set comment="kpoint 28">
       <r>  -19.1842    1.0000 </r>
       <r>  -19.1842    1.0000 </r>
       <r>   -5.6218    1.0000 </r>
       <r>   -5.6218    1.0000 </r>
       <r>   -4.9008    1.0000 </r>
       <r>   -4.9008    1.0000 </r>
       <r>   -4.5530    1.0000 </r>
       <r>   -4.5530    1.0000 </r>
       <r>    6.3150    0.0000 </r>
       <r>    6.3150    0.0000 </r>
       <r>    7.6478    0.0000 </r>
       <r>    7.6478    0.0000 </r>
       <r>    9.6587    0.0000 </r>
       <r>    9.6587    0.0000 </r>
       <r>   12.3110    0.0000 </r>
       <r>   12.3110    0.0000 </r>
       <r>   13.4994    0.0000 </r>
       <r>   13.4994    0.0000 </r>
       <r>   15.2713    0.0000 </r>
       <r>   15.2717    0.0000 </r>
      </set>
      <set comment="kpoint 29">
       <r>  -19.2314    1.0000 </r>
       <r>  -19.2314    1.0000 </r>
       <r>   -5.4820    1.0000 </r>
       <r>   -5.4820    1.0000 </r>
       <r>   -4.7379    1.0000 </r>
       <r>   -4.7379    1.0000 </r>
       <r>   -4.4370    1.0000 </r>
       <r>   -4.4370    1.0000 </r>
       <r>    5.9958    0.0000 </r>
       <r>    5.9958    0.0000 </r>
       <r>    7.6803    0.0000 </r>
       <r>    7.6803    0.0000 </r>
       <r>    9.5352    0.0000 </r>
       <r>    9.5352    0.0000 </r>
       <r>   12.4273    0.0000 </r>
       <r>   12.4273    0.0000 </r>
       <r>   12.4997    0.0000 </r>
       <r>   12.4997    0.0000 </r>
       <r>   14.2693    0.0000 </r>
       <r>   14.2693    0.0000 </r>
      </set>
      <set comment="kpoint 30">
       <r>  -19.2771    1.0000 </r>
       <r>  -19.2771    1.0000 </r>
       <r>   -5.3613    1.0000 </r>
       <r>   -5.3613    1.0000 </r>
       <r>   -4.6043    1.0000 </r>
       <r>   -4.6043    1.0000 </r>
       <r>   -4.2969    1.0000 </r>
       <r>   -4.2969    1.0000 </r>
       <r>    5.8694    0.0000 </r>
       <r>    5.8694    0.0000 </r>
       <r>    8.3875    0.0000 </r>
       <r>    8.3875    0.0000 </r>
       <r>    9.4512    0.0000 </r>
       <r>    9.4512    0.0000 </r>
       <r>   11.0149    0.0000 </r>
       <r>   11.0149    0.0000 </r>
       <r>   12.1851    0.0000 </r>
       <r>   12.1851    0.0000 </r>
       <r>   13.9857    0.0000 </r>
       <r>   13.9857    0.0000 </r>
      </set>
      <set comment="kpoint 31">
       <r>  -19.3687    1.0000 </r>
       <r>  -19.3687    1.0000 </r>
       <r>   -4.9563    1.0000 </r>
       <r>   -4.9563    1.0000 </r>
       <r>   -4.3072    1.0000 </r>
       <r>   -4.3072    1.0000 </r>
       <r>   -4.0940    1.0000 </r>
       <r>   -4.0940    1.0000 </r>
       <r>    4.4904    0.0000 </r>
       <r>    4.4904    0.0000 </r>
       <r>    9.3986    0.0000 </r>
       <r>    9.3986    0.0000 </r>
       <r>   10.5511    0.0000 </r>
       <r>   10.5511    0.0000 </r>
       <r>   10.5687    0.0000 </r>
       <r>   10.5687    0.0000 </r>
       <r>   12.3415    0.0000 </r>
       <r>   12.3415    0.0000 </r>
       <r>   12.3534    0.0000 </r>
       <r>   12.3534    0.0000 </r>
      </set>
      <set comment="kpoint 32">
       <r>  -19.3077    1.0000 </r>
       <r>  -19.3077    1.0000 </r>
       <r>   -5.2316    1.0000 </r>
       <r>   -5.2316    1.0000 </r>
       <r>   -4.5481    1.0000 </r>
       <r>   -4.5481    1.0000 </r>
       <r>   -4.1990    1.0000 </r>
       <r>   -4.1990    1.0000 </r>
       <r>    5.4906    0.0000 </r>
       <r>    5.4906    0.0000 </r>
       <r>    8.8221    0.0000 </r>
       <r>    8.8221    0.0000 </r>
       <r>    9.7641    0.0000 </r>
       <r>    9.7641    0.0000 </r>
       <r>   11.1035    0.0000 </r>
       <r>   11.1035    0.0000 </r>
       <r>   11.2348    0.0000 </r>
       <r>   11.2348    0.0000 </r>
       <r>   13.6489    0.0000 </r>
       <r>   13.6489    0.0000 </r>
      </set>
      <set comment="kpoint 33">
       <r>  -19.2297    1.0000 </r>
       <r>  -19.2297    1.0000 </r>
       <r>   -5.6036    1.0000 </r>
       <r>   -5.6036    1.0000 </r>
       <r>   -4.7611    1.0000 </r>
       <r>   -4.7611    1.0000 </r>
       <r>   -4.3258    1.0000 </r>
       <r>   -4.3258    1.0000 </r>
       <r>    6.6820    0.0000 </r>
       <r>    6.6820    0.0000 </r>
       <r>    8.3117    0.0000 </r>
       <r>    8.3117    0.0000 </r>
       <r>    9.2066    0.0000 </r>
       <r>    9.2066    0.0000 </r>
       <r>   10.4800    0.0000 </r>
       <r>   10.4800    0.0000 </r>
       <r>   12.9625    0.0000 </r>
       <r>   12.9625    0.0000 </r>
       <r>   15.2222    0.0000 </r>
       <r>   15.3221    0.0000 </r>
      </set>
      <set comment="kpoint 34">
       <r>  -19.2140    1.0000 </r>
       <r>  -19.2140    1.0000 </r>
       <r>   -5.6896    1.0000 </r>
       <r>   -5.6896    1.0000 </r>
       <r>   -4.7539    1.0000 </r>
       <r>   -4.7539    1.0000 </r>
       <r>   -4.3751    1.0000 </r>
       <r>   -4.3751    1.0000 </r>
       <r>    6.7317    0.0000 </r>
       <r>    6.7317    0.0000 </r>
       <r>    8.0727    0.0000 </r>
       <r>    8.0727    0.0000 </r>
       <r>    9.4530    0.0000 </r>
       <r>    9.4530    0.0000 </r>
       <r>   10.5359    0.0000 </r>
       <r>   10.5359    0.0000 </r>
       <r>   13.7187    0.0000 </r>
       <r>   13.7187    0.0000 </r>
       <r>   15.0117    0.0000 </r>
       <r>   15.0144    0.0000 </r>
      </set>
      <set comment="kpoint 35">
       <r>  -19.2771    1.0000 </r>
       <r>  -19.2771    1.0000 </r>
       <r>   -5.3613    1.0000 </r>
       <r>   -5.3613    1.0000 </r>
       <r>   -4.6043    1.0000 </r>
       <r>   -4.6043    1.0000 </r>
       <r>   -4.2969    1.0000 </r>
       <r>   -4.2969    1.0000 </r>
       <r>    5.8694    0.0000 </r>
       <r>    5.8694    0.0000 </r>
       <r>    8.3875    0.0000 </r>
       <r>    8.3875    0.0000 </r>
       <r>    9.4512    0.0000 </r>
       <r>    9.4512    0.0000 </r>
       <r>   11.0149    0.0000 </r>
       <r>   11.0149    0.0000 </r>
       <r>   12.1851    0.0000 </r>
       <r>   12.1851    0.0000 </r>
       <r>   13.9857    0.0000 </r>
       <r>   13.9857    0.0000 </r>
      </set>
      <set comment="kpoint 36">
       <r>  -19.3538    1.0000 </r>
       <r>  -19.3538    1.0000 </r>
       <r>   -4.9835    1.0000 </r>
       <r>   -4.9835    1.0000 </r>
       <r>   -4.3526    1.0000 </r>
       <r>   -4.3526    1.0000 </r>
       <r>   -4.1832    1.0000 </r>
       <r>   -4.1832    1.0000 </r>
       <r>    4.7254    0.0000 </r>
       <r>    4.7254    0.0000 </r>
       <r>    9.0387    0.0000 </r>
       <r>    9.0387    0.0000 </r>
       <r>   10.7819    0.0000 </r>
       <r>   10.7819    0.0000 </r>
       <r>   10.8685    0.0000 </r>
       <r>   10.8685    0.0000 </r>
       <r>   10.8961    0.0000 </r>
       <r>   10.8961    0.0000 </r>
       <r>   13.2781    0.0000 </r>
       <r>   13.2781    0.0000 </r>
      </set>
      <set comment="kpoint 37">
       <r>  -19.3687    1.0000 </r>
       <r>  -19.3687    1.0000 </r>
       <r>   -4.9563    1.0000 </r>
       <r>   -4.9563    1.0000 </r>
       <r>   -4.3072    1.0000 </r>
       <r>   -4.3072    1.0000 </r>
       <r>   -4.0940    1.0000 </r>
       <r>   -4.0940    1.0000 </r>
       <r>    4.4904    0.0000 </r>
       <r>    4.4904    0.0000 </r>
       <r>    9.3986    0.0000 </r>
       <r>    9.3986    0.0000 </r>
       <r>   10.5511    0.0000 </r>
       <r>   10.5511    0.0000 </r>
       <r>   10.5687    0.0000 </r>
       <r>   10.5687    0.0000 </r>
       <r>   12.3415    0.0000 </r>
       <r>   12.3415    0.0000 </r>
       <r>   12.3534    0.0000 </r>
       <r>   12.3534    0.0000 </r>
      </set>
      <set comment="kpoint 38">
       <r>  -19.3538    1.0000 </r>
       <r>  -19.3538    1.0000 </r>
       <r>   -4.9835    1.0000 </r>
       <r>   -4.9835    1.0000 </r>
       <r>   -4.3526    1.0000 </r>
       <r>   -4.3526    1.0000 </r>
       <r>   -4.1832    1.0000 </r>
       <r>   -4.1832    1.0000 </r>
       <r>    4.7254    0.0000 </r>
       <r>    4.7254    0.0000 </r>
       <r>    9.0387    0.0000 </r>
       <r>    9.0387    0.0000 </r>
       <r>   10.7819    0.0000 </r>
       <r>   10.7819    0.0000 </r>
       <r>   10.8685    0.0000 </r>
       <r>   10.8685    0.0000 </r>
       <r>   10.8961    0.0000 </r>
       <r>   10.8961    0.0000 </r>
       <r>   13.2781    0.0000 </r>
       <r>   13.2781    0.0000 </r>
      </set>
      <set comment="kpoint 39">
       <r>  -19.2771    1.0000 </r>
       <r>  -19.2771    1.0000 </r>
       <r>   -5.3613    1.0000 </r>
       <r>   -5.3613    1.0000 </r>
       <r>   -4.6043    1.0000 </r>
       <r>   -4.6043    1.0000 </r>
       <r>   -4.2969    1.0000 </r>
       <r>   -4.2969    1.0000 </r>
       <r>    5.8694    0.0000 </r>
       <r>    5.8694    0.0000 </r>
       <r>    8.3875    0.0000 </r>
       <r>    8.3875    0.0000 </r>
       <r>    9.4512    0.0000 </r>
       <r>    9.4512    0.0000 </r>
       <r>   11.0149    0.0000 </r>
       <r>   11.0149    0.0000 </r>
       <r>   12.1851    0.0000 </r>
       <r>   12.1851    0.0000 </r>
       <r>   13.9857    0.0000 </r>
       <r>   13.9857    0.0000 </r>
      </set>
      <set comment="kpoint 40">
       <r>  -19.2140    1.0000 </r>
       <r>  -19.2140    1.0000 </r>
       <r>   -5.6896    1.0000 </r>
       <r>   -5.6896    1.0000 </r>
       <r>   -4.7539    1.0000 </r>
       <r>   -4.7539    1.0000 </r>
       <r>   -4.3751    1.0000 </r>
       <r>   -4.3751    1.0000 </r>
       <r>    6.7317    0.0000 </r>
       <r>    6.7317    0.0000 </r>
       <r>    8.0727    0.0000 </r>
       <r>    8.0727    0.0000 </r>
       <r>    9.4530    0.0000 </r>
       <r>    9.4530    0.0000 </r>
       <r>   10.5359    0.0000 </r>
       <r>   10.5359    0.0000 </r>
       <r>   13.7187    0.0000 </r>
       <r>   13.7187    0.0000 </r>
       <r>   15.0118    0.0000 </r>
       <r>   15.0300    0.0000 </r>
      </set>
      <set comment="kpoint 41">
       <r>  -19.2297    1.0000 </r>
       <r>  -19.2297    1.0000 </r>
       <r>   -5.6036    1.0000 </r>
       <r>   -5.6036    1.0000 </r>
       <r>   -4.7611    1.0000 </r>
       <r>   -4.7611    1.0000 </r>
       <r>   -4.3258    1.0000 </r>
       <r>   -4.3258    1.0000 </r>
       <r>    6.6820    0.0000 </r>
       <r>    6.6820    0.0000 </r>
       <r>    8.3117    0.0000 </r>
       <r>    8.3117    0.0000 </r>
       <r>    9.2066    0.0000 </r>
       <r>    9.2066    0.0000 </r>
       <r>   10.4800    0.0000 </r>
       <r>   10.4800    0.0000 </r>
       <r>   12.9625    0.0000 </r>
       <r>   12.9625    0.0000 </r>
       <r>   15.2241    0.0000 </r>
       <r>   15.2443    0.0000 </r>
      </set>
      <set comment="kpoint 42">
       <r>  -19.3077    1.0000 </r>
       <r>  -19.3077    1.0000 </r>
       <r>   -5.2316    1.0000 </r>
       <r>   -5.2316    1.0000 </r>
       <r>   -4.5481    1.0000 </r>
       <r>   -4.5481    1.0000 </r>
       <r>   -4.1990    1.0000 </r>
       <r>   -4.1990    1.0000 </r>
       <r>    5.4906    0.0000 </r>
       <r>    5.4906    0.0000 </r>
       <r>    8.8221    0.0000 </r>
       <r>    8.8221    0.0000 </r>
       <r>    9.7641    0.0000 </r>
       <r>    9.7641    0.0000 </r>
       <r>   11.1035    0.0000 </r>
       <r>   11.1035    0.0000 </r>
       <r>   11.2348    0.0000 </r>
       <r>   11.2348    0.0000 </r>
       <r>   13.6489    0.0000 </r>
       <r>   13.6489    0.0000 </r>
      </set>
      <set comment="kpoint 43">
       <r>  -19.3538    1.0000 </r>
       <r>  -19.3538    1.0000 </r>
       <r>   -4.9835    1.0000 </r>
       <r>   -4.9835    1.0000 </r>
       <r>   -4.3526    1.0000 </r>
       <r>   -4.3526    1.0000 </r>
       <r>   -4.1832    1.0000 </r>
       <r>   -4.1832    1.0000 </r>
       <r>    4.7254    0.0000 </r>
       <r>    4.7254    0.0000 </r>
       <r>    9.0387    0.0000 </r>
       <r>    9.0387    0.0000 </r>
       <r>   10.7819    0.0000 </r>
       <r>   10.7819    0.0000 </r>
       <r>   10.8685    0.0000 </r>
       <r>   10.8685    0.0000 </r>
       <r>   10.8961    0.0000 </r>
       <r>   10.8961    0.0000 </r>
       <r>   13.2781    0.0000 </r>
       <r>   13.2781    0.0000 </r>
      </set>
      <set comment="kpoint 44">
       <r>  -19.3687    1.0000 </r>
       <r>  -19.3687    1.0000 </r>
       <r>   -4.9563    1.0000 </r>
       <r>   -4.9563    1.0000 </r>
       <r>   -4.3072    1.0000 </r>
       <r>   -4.3072    1.0000 </r>
       <r>   -4.0939    1.0000 </r>
       <r>   -4.0939    1.0000 </r>
       <r>    4.4904    0.0000 </r>
       <r>    4.4904    0.0000 </r>
       <r>    9.3987    0.0000 </r>
       <r>    9.3987    0.0000 </r>
       <r>   10.5511    0.0000 </r>
       <r>   10.5511    0.0000 </r>
       <r>   10.5687    0.0000 </r>
       <r>   10.5687    0.0000 </r>
       <r>   12.3415    0.0000 </r>
       <r>   12.3415    0.0000 </r>
       <r>   12.3534    0.0000 </r>
       <r>   12.3534    0.0000 </r>
      </set>
      <set comment="kpoint 45">
       <r>  -19.3077    1.0000 </r>
       <r>  -19.3077    1.0000 </r>
       <r>   -5.2316    1.0000 </r>
       <r>   -5.2316    1.0000 </r>
       <r>   -4.5481    1.0000 </r>
       <r>   -4.5481    1.0000 </r>
       <r>   -4.1990    1.0000 </r>
       <r>   -4.1990    1.0000 </r>
       <r>    5.4906    0.0000 </r>
       <r>    5.4906    0.0000 </r>
       <r>    8.8221    0.0000 </r>
       <r>    8.8221    0.0000 </r>
       <r>    9.7640    0.0000 </r>
       <r>    9.7640    0.0000 </r>
       <r>   11.1035    0.0000 </r>
       <r>   11.1035    0.0000 </r>
       <r>   11.2347    0.0000 </r>
       <r>   11.2347    0.0000 </r>
       <r>   13.6489    0.0000 </r>
       <r>   13.6489    0.0000 </r>
      </set>
      <set comment="kpoint 46">
       <r>  -19.2297    1.0000 </r>
       <r>  -19.2297    1.0000 </r>
       <r>   -5.6036    1.0000 </r>
       <r>   -5.6036    1.0000 </r>
       <r>   -4.7611    1.0000 </r>
       <r>   -4.7611    1.0000 </r>
       <r>   -4.3258    1.0000 </r>
       <r>   -4.3258    1.0000 </r>
       <r>    6.6819    0.0000 </r>
       <r>    6.6819    0.0000 </r>
       <r>    8.3117    0.0000 </r>
       <r>    8.3117    0.0000 </r>
       <r>    9.2066    0.0000 </r>
       <r>    9.2066    0.0000 </r>
       <r>   10.4800    0.0000 </r>
       <r>   10.4800    0.0000 </r>
       <r>   12.9625    0.0000 </r>
       <r>   12.9625    0.0000 </r>
       <r>   15.2230    0.0000 </r>
       <r>   15.2357    0.0000 </r>
      </set>
      <set comment="kpoint 47">
       <r>  -19.2140    1.0000 </r>
       <r>  -19.2140    1.0000 </r>
       <r>   -5.6896    1.0000 </r>
       <r>   -5.6896    1.0000 </r>
       <r>   -4.7539    1.0000 </r>
       <r>   -4.7539    1.0000 </r>
       <r>   -4.3751    1.0000 </r>
       <r>   -4.3751    1.0000 </r>
       <r>    6.7317    0.0000 </r>
       <r>    6.7317    0.0000 </r>
       <r>    8.0727    0.0000 </r>
       <r>    8.0727    0.0000 </r>
       <r>    9.4530    0.0000 </r>
       <r>    9.4530    0.0000 </r>
       <r>   10.5359    0.0000 </r>
       <r>   10.5359    0.0000 </r>
       <r>   13.7187    0.0000 </r>
       <r>   13.7187    0.0000 </r>
       <r>   15.0117    0.0000 </r>
       <r>   15.0145    0.0000 </r>
      </set>
      <set comment="kpoint 48">
       <r>  -19.2771    1.0000 </r>
       <r>  -19.2771    1.0000 </r>
       <r>   -5.3613    1.0000 </r>
       <r>   -5.3613    1.0000 </r>
       <r>   -4.6043    1.0000 </r>
       <r>   -4.6043    1.0000 </r>
       <r>   -4.2969    1.0000 </r>
       <r>   -4.2969    1.0000 </r>
       <r>    5.8694    0.0000 </r>
       <r>    5.8694    0.0000 </r>
       <r>    8.3875    0.0000 </r>
       <r>    8.3875    0.0000 </r>
       <r>    9.4512    0.0000 </r>
       <r>    9.4512    0.0000 </r>
       <r>   11.0150    0.0000 </r>
       <r>   11.0150    0.0000 </r>
       <r>   12.1851    0.0000 </r>
       <r>   12.1851    0.0000 </r>
       <r>   13.9857    0.0000 </r>
       <r>   13.9857    0.0000 </r>
      </set>
      <set comment="kpoint 49">
       <r>  -19.2771    1.0000 </r>
       <r>  -19.2771    1.0000 </r>
       <r>   -5.3613    1.0000 </r>
       <r>   -5.3613    1.0000 </r>
       <r>   -4.6043    1.0000 </r>
       <r>   -4.6043    1.0000 </r>
       <r>   -4.2969    1.0000 </r>
       <r>   -4.2969    1.0000 </r>
       <r>    5.8694    0.0000 </r>
       <r>    5.8694    0.0000 </r>
       <r>    8.3875    0.0000 </r>
       <r>    8.3875    0.0000 </r>
       <r>    9.4512    0.0000 </r>
       <r>    9.4512    0.0000 </r>
       <r>   11.0150    0.0000 </r>
       <r>   11.0150    0.0000 </r>
       <r>   12.1851    0.0000 </r>
       <r>   12.1851    0.0000 </r>
       <r>   13.9857    0.0000 </r>
       <r>   13.9857    0.0000 </r>
      </set>
      <set comment="kpoint 50">
       <r>  -19.3077    1.0000 </r>
       <r>  -19.3077    1.0000 </r>
       <r>   -5.2316    1.0000 </r>
       <r>   -5.2316    1.0000 </r>
       <r>   -4.5481    1.0000 </r>
       <r>   -4.5481    1.0000 </r>
       <r>   -4.1990    1.0000 </r>
       <r>   -4.1990    1.0000 </r>
       <r>    5.4906    0.0000 </r>
       <r>    5.4906    0.0000 </r>
       <r>    8.8221    0.0000 </r>
       <r>    8.8221    0.0000 </r>
       <r>    9.7640    0.0000 </r>
       <r>    9.7640    0.0000 </r>
       <r>   11.1035    0.0000 </r>
       <r>   11.1035    0.0000 </r>
       <r>   11.2347    0.0000 </r>
       <r>   11.2347    0.0000 </r>
       <r>   13.6489    0.0000 </r>
       <r>   13.6489    0.0000 </r>
      </set>
      <set comment="kpoint 51">
       <r>  -19.2771    1.0000 </r>
       <r>  -19.2771    1.0000 </r>
       <r>   -5.3613    1.0000 </r>
       <r>   -5.3613    1.0000 </r>
       <r>   -4.6043    1.0000 </r>
       <r>   -4.6043    1.0000 </r>
       <r>   -4.2969    1.0000 </r>
       <r>   -4.2969    1.0000 </r>
       <r>    5.8694    0.0000 </r>
       <r>    5.8694    0.0000 </r>
       <r>    8.3875    0.0000 </r>
       <r>    8.3875    0.0000 </r>
       <r>    9.4512    0.0000 </r>
       <r>    9.4512    0.0000 </r>
       <r>   11.0149    0.0000 </r>
       <r>   11.0149    0.0000 </r>
       <r>   12.1851    0.0000 </r>
       <r>   12.1851    0.0000 </r>
       <r>   13.9857    0.0000 </r>
       <r>   13.9857    0.0000 </r>
      </set>
[...]
       <r>     6.2346     0.0000     0.0000 </r>
       <r>     6.3632     0.0000     0.0000 </r>
       <r>     6.4919     0.0000     0.0000 </r>
       <r>     6.6205     0.0000     0.0000 </r>
       <r>     6.7492     0.0000     0.0000 </r>
       <r>     6.8778     0.0000     0.0000 </r>
       <r>     7.0065     0.0000     0.0000 </r>
       <r>     7.1351     0.0000     0.0000 </r>
       <r>     7.2638     0.0000     0.0000 </r>
       <r>     7.3924     0.0000     0.0000 </r>
       <r>     7.5211     0.0000     0.0000 </r>
       <r>     7.6497     0.0000     0.0000 </r>
       <r>     7.7784     0.0000     0.0000 </r>
       <r>     7.9070     0.0000     0.0000 </r>
       <r>     8.0357     0.0000     0.0000 </r>
       <r>     8.1643     0.0000     0.0000 </r>
       <r>     8.2930     0.0000     0.0000 </r>
       <r>     8.4216     0.0000     0.0000 </r>
       <r>     8.5503     0.0000     0.0000 </r>
       <r>     8.6789     0.0000     0.0000 </r>
       <r>     8.8076     0.0000     0.0000 </r>
       <r>     8.9362     0.0000     0.0000 </r>
       <r>     9.0649     0.0000     0.0000 </r>
       <r>     9.1935     0.0000     0.0000 </r>
       <r>     9.3222     0.0000     0.0000 </r>
       <r>     9.4508     0.0000     0.0000 </r>
       <r>     9.5795     0.0000     0.0000 </r>
       <r>     9.7081     0.0000     0.0000 </r>
       <r>     9.8368     0.0000     0.0000 </r>
       <r>     9.9654     0.0000     0.0000 </r>
       <r>    10.0941     0.0000     0.0000 </r>
       <r>    10.2228     0.0000     0.0000 </r>
       <r>    10.3514     0.0000     0.0000 </r>
       <r>    10.4801     0.0000     0.0000 </r>
       <r>    10.6087     0.0000     0.0000 </r>
       <r>    10.7374     0.0000     0.0000 </r>
       <r>    10.8660     0.0000     0.0000 </r>
       <r>    10.9947     0.0000     0.0000 </r>
       <r>    11.1233     0.0000     0.0000 </r>
       <r>    11.2520     0.0000     0.0000 </r>
       <r>    11.3806     0.0000     0.0000 </r>
       <r>    11.5093     0.0000     0.0000 </r>
       <r>    11.6379     0.0000     0.0000 </r>
       <r>    11.7666     0.0000     0.0000 </r>
       <r>    11.8952     0.0000     0.0000 </r>
       <r>    12.0239     0.0000     0.0000 </r>
       <r>    12.1525     0.0000     0.0000 </r>
       <r>    12.2812     0.0000     0.0000 </r>
       <r>    12.4098     0.0000     0.0000 </r>
       <r>    12.5385     0.0000     0.0000 </r>
       <r>    12.6671     0.0000     0.0000 </r>
       <r>    12.7958     0.0000     0.0000 </r>
       <r>    12.9244     0.0000     0.0000 </r>
       <r>    13.0531     0.0000     0.0000 </r>
       <r>    13.1817     0.0000     0.0000 </r>
       <r>    13.3104     0.0000     0.0000 </r>
       <r>    13.4390     0.0000     0.0000 </r>
       <r>    13.5677     0.0000     0.0000 </r>
       <r>    13.6963     0.0000     0.0000 </r>
       <r>    13.8250     0.0000     0.0000 </r>
       <r>    13.9536     0.0000     0.0000 </r>
       <r>    14.0823     0.0000     0.0000 </r>
       <r>    14.2109     0.0000     0.0000 </r>
       <r>    14.3396     0.0000     0.0000 </r>
       <r>    14.4682     0.0000     0.0000 </r>
       <r>    14.5969     0.0000     0.0000 </r>
       <r>    14.7255     0.0000     0.0000 </r>
       <r>    14.8542     0.0000     0.0000 </r>
       <r>    14.9828     0.0000     0.0000 </r>
       <r>    15.1115     0.0000     0.0000 </r>
       <r>    15.2401     0.0000     0.0000 </r>
       <r>    15.3688     0.0000     0.0000 </r>
       <r>    15.4974     0.0000     0.0000 </r>
       <r>    15.6261     0.0000     0.0000 </r>
       <r>    15.7547     0.0000     0.0000 </r>
       <r>    15.8834     0.0000     0.0000 </r>
       <r>    16.0121     0.0000     0.0000 </r>
       <r>    16.1407     0.0000     0.0000 </r>
       <r>    16.2694     0.0000     0.0000 </r>
       <r>    16.3980     0.0000     0.0000 </r>
       <r>    16.5267     0.0000     0.0000 </r>
       <r>    16.6553     0.0000     0.0000 </r>
       <r>    16.7840     0.0000     0.0000 </r>
       <r>    16.9126     0.0000     0.0000 </r>
       <r>    17.0413     0.0000     0.0000 </r>
       <r>    17.1699     0.0000     0.0000 </r>
       <r>    17.2986     0.0000     0.0000 </r>
       <r>    17.4272     0.0000     0.0000 </r>
      </set>
      <set comment="spin 4">
       <r>   -21.1681     0.0000     0.0000 </r>
       <r>   -21.0395     0.0000     0.0000 </r>
       <r>   -20.9108     0.0000     0.0000 </r>
       <r>   -20.7822     0.0000     0.0000 </r>
       <r>   -20.6535     0.0000     0.0000 </r>
       <r>   -20.5249     0.0000     0.0000 </r>
       <r>   -20.3962     0.0000     0.0000 </r>
       <r>   -20.2676     0.0000     0.0000 </r>
       <r>   -20.1389     0.0000     0.0000 </r>
       <r>   -20.0103     0.0000     0.0000 </r>
       <r>   -19.8816     0.0000     0.0000 </r>
       <r>   -19.7530     0.0000     0.0000 </r>
       <r>   -19.6243     0.0000     0.0000 </r>
       <r>   -19.4957     0.0000     0.0000 </r>
       <r>   -19.3670     0.0000     0.0000 </r>
       <r>   -19.2384     0.0000     0.0000 </r>
       <r>   -19.1097     0.0000     0.0000 </r>
       <r>   -18.9811     0.0000     0.0000 </r>
       <r>   -18.8524     0.0000     0.0000 </r>
       <r>   -18.7238     0.0000     0.0000 </r>
       <r>   -18.5951     0.0000     0.0000 </r>
       <r>   -18.4664     0.0000     0.0000 </r>
       <r>   -18.3378     0.0000     0.0000 </r>
       <r>   -18.2091     0.0000     0.0000 </r>
       <r>   -18.0805     0.0000     0.0000 </r>
       <r>   -17.9518     0.0000     0.0000 </r>
       <r>   -17.8232     0.0000     0.0000 </r>
       <r>   -17.6945     0.0000     0.0000 </r>
       <r>   -17.5659     0.0000     0.0000 </r>
       <r>   -17.4372     0.0000     0.0000 </r>
       <r>   -17.3086     0.0000     0.0000 </r>
       <r>   -17.1799     0.0000     0.0000 </r>
       <r>   -17.0513     0.0000     0.0000 </r>
       <r>   -16.9226     0.0000     0.0000 </r>
       <r>   -16.7940     0.0000     0.0000 </r>
       <r>   -16.6653     0.0000     0.0000 </r>
       <r>   -16.5367     0.0000     0.0000 </r>
       <r>   -16.4080     0.0000     0.0000 </r>
       <r>   -16.2794     0.0000     0.0000 </r>
       <r>   -16.1507     0.0000     0.0000 </r>
       <r>   -16.0221     0.0000     0.0000 </r>
       <r>   -15.8934     0.0000     0.0000 </r>
       <r>   -15.7648     0.0000     0.0000 </r>
       <r>   -15.6361     0.0000     0.0000 </r>
       <r>   -15.5075     0.0000     0.0000 </r>
       <r>   -15.3788     0.0000     0.0000 </r>
       <r>   -15.2502     0.0000     0.0000 </r>
       <r>   -15.1215     0.0000     0.0000 </r>
       <r>   -14.9929     0.0000     0.0000 </r>
       <r>   -14.8642     0.0000     0.0000 </r>
       <r>   -14.7356     0.0000     0.0000 </r>
       <r>   -14.6069     0.0000     0.0000 </r>
       <r>   -14.4783     0.0000     0.0000 </r>
       <r>   -14.3496     0.0000     0.0000 </r>
       <r>   -14.2210     0.0000     0.0000 </r>
       <r>   -14.0923     0.0000     0.0000 </r>
       <r>   -13.9637     0.0000     0.0000 </r>
       <r>   -13.8350     0.0000     0.0000 </r>
       <r>   -13.7064     0.0000     0.0000 </r>
       <r>   -13.5777     0.0000     0.0000 </r>
       <r>   -13.4491     0.0000     0.0000 </r>
       <r>   -13.3204     0.0000     0.0000 </r>
       <r>   -13.1918     0.0000     0.0000 </r>
       <r>   -13.0631     0.0000     0.0000 </r>
       <r>   -12.9344     0.0000     0.0000 </r>
       <r>   -12.8058     0.0000     0.0000 </r>
       <r>   -12.6771     0.0000     0.0000 </r>
       <r>   -12.5485     0.0000     0.0000 </r>
       <r>   -12.4198     0.0000     0.0000 </r>
       <r>   -12.2912     0.0000     0.0000 </r>
       <r>   -12.1625     0.0000     0.0000 </r>
       <r>   -12.0339     0.0000     0.0000 </r>
       <r>   -11.9052     0.0000     0.0000 </r>
       <r>   -11.7766     0.0000     0.0000 </r>
       <r>   -11.6479     0.0000     0.0000 </r>
       <r>   -11.5193     0.0000     0.0000 </r>
       <r>   -11.3906     0.0000     0.0000 </r>
       <r>   -11.2620     0.0000     0.0000 </r>
       <r>   -11.1333     0.0000     0.0000 </r>
       <r>   -11.0047     0.0000     0.0000 </r>
       <r>   -10.8760     0.0000     0.0000 </r>
       <r>   -10.7474     0.0000     0.0000 </r>
       <r>   -10.6187     0.0000     0.0000 </r>
       <r>   -10.4901     0.0000     0.0000 </r>
       <r>   -10.3614     0.0000     0.0000 </r>
       <r>   -10.2328     0.0000     0.0000 </r>
       <r>   -10.1041     0.0000     0.0000 </r>
       <r>    -9.9755     0.0000     0.0000 </r>
       <r>    -9.8468     0.0000     0.0000 </r>
       <r>    -9.7182     0.0000     0.0000 </r>
       <r>    -9.5895     0.0000     0.0000 </r>
       <r>    -9.4609     0.0000     0.0000 </r>
       <r>    -9.3322     0.0000     0.0000 </r>
       <r>    -9.2036     0.0000     0.0000 </r>
       <r>    -9.0749     0.0000     0.0000 </r>
       <r>    -8.9463     0.0000     0.0000 </r>
       <r>    -8.8176     0.0000     0.0000 </r>
       <r>    -8.6890     0.0000     0.0000 </r>
       <r>    -8.5603     0.0000     0.0000 </r>
       <r>    -8.4317     0.0000     0.0000 </r>
       <r>    -8.3030     0.0000     0.0000 </r>
       <r>    -8.1744     0.0000     0.0000 </r>
       <r>    -8.0457     0.0000     0.0000 </r>
       <r>    -7.9171     0.0000     0.0000 </r>
       <r>    -7.7884     0.0000     0.0000 </r>
       <r>    -7.6598     0.0000     0.0000 </r>
       <r>    -7.5311     0.0000     0.0000 </r>
       <r>    -7.4025     0.0000     0.0000 </r>
       <r>    -7.2738     0.0000     0.0000 </r>
       <r>    -7.1451     0.0000     0.0000 </r>
       <r>    -7.0165     0.0000     0.0000 </r>
       <r>    -6.8878     0.0000     0.0000 </r>
       <r>    -6.7592     0.0000     0.0000 </r>
       <r>    -6.6305     0.0000     0.0000 </r>
       <r>    -6.5019     0.0000     0.0000 </r>
       <r>    -6.3732     0.0000     0.0000 </r>
       <r>    -6.2446     0.0000     0.0000 </r>
       <r>    -6.1159     0.0000     0.0000 </r>
       <r>    -5.9873     0.0000     0.0000 </r>
       <r>    -5.8586     0.0000     0.0000 </r>
       <r>    -5.7300     0.0000     0.0000 </r>
       <r>    -5.6013     0.0000     0.0000 </r>
       <r>    -5.4727     0.0000     0.0000 </r>
       <r>    -5.3440     0.0000     0.0000 </r>
       <r>    -5.2154     0.0000     0.0000 </r>
       <r>    -5.0867     0.0000     0.0000 </r>
       <r>    -4.9581     0.0000     0.0000 </r>
       <r>    -4.8294     0.0000     0.0000 </r>
       <r>    -4.7008     0.0000     0.0000 </r>
       <r>    -4.5721     0.0000     0.0000 </r>
       <r>    -4.4435     0.0000     0.0000 </r>
       <r>    -4.3148     0.0000     0.0000 </r>
       <r>    -4.1862     0.0000     0.0000 </r>
       <r>    -4.0575     0.0000     0.0000 </r>
       <r>    -3.9289     0.0000     0.0000 </r>
       <r>    -3.8002     0.0000     0.0000 </r>
       <r>    -3.6716     0.0000     0.0000 </r>
       <r>    -3.5429     0.0000     0.0000 </r>
       <r>    -3.4143     0.0000     0.0000 </r>
       <r>    -3.2856     0.0000     0.0000 </r>
       <r>    -3.1570     0.0000     0.0000 </r>
       <r>    -3.0283     0.0000     0.0000 </r>
       <r>    -2.8997     0.0000     0.0000 </r>
       <r>    -2.7710     0.0000     0.0000 </r>
       <r>    -2.6424     0.0000     0.0000 </r>
       <r>    -2.5137     0.0000     0.0000 </r>
       <r>    -2.3851     0.0000     0.0000 </r>
       <r>    -2.2564     0.0000     0.0000 </r>
       <r>    -2.1278     0.0000     0.0000 </r>
       <r>    -1.9991     0.0000     0.0000 </r>
       <r>    -1.8705     0.0000     0.0000 </r>
       <r>    -1.7418     0.0000     0.0000 </r>
       <r>    -1.6132     0.0000     0.0000 </r>
       <r>    -1.4845     0.0000     0.0000 </r>
       <r>    -1.3558     0.0000     0.0000 </r>
       <r>    -1.2272     0.0000     0.0000 </r>
       <r>    -1.0985     0.0000     0.0000 </r>
       <r>    -0.9699     0.0000     0.0000 </r>
       <r>    -0.8412     0.0000     0.0000 </r>
       <r>    -0.7126     0.0000     0.0000 </r>
       <r>    -0.5839     0.0000     0.0000 </r>
       <r>    -0.4553     0.0000     0.0000 </r>
       <r>    -0.3266     0.0000     0.0000 </r>
       <r>    -0.1980     0.0000     0.0000 </r>
       <r>    -0.0693     0.0000     0.0000 </r>
       <r>     0.0593     0.0000     0.0000 </r>
       <r>     0.1880     0.0000     0.0000 </r>
       <r>     0.3166     0.0000     0.0000 </r>
       <r>     0.4453     0.0000     0.0000 </r>
       <r>     0.5739     0.0000     0.0000 </r>
       <r>     0.7026     0.0000     0.0000 </r>
       <r>     0.8312     0.0000     0.0000 </r>
       <r>     0.9599     0.0000     0.0000 </r>
       <r>     1.0885     0.0000     0.0000 </r>
       <r>     1.2172     0.0000     0.0000 </r>
       <r>     1.3458     0.0000     0.0000 </r>
       <r>     1.4745     0.0000     0.0000 </r>
       <r>     1.6031     0.0000     0.0000 </r>
       <r>     1.7318     0.0000     0.0000 </r>
       <r>     1.8604     0.0000     0.0000 </r>
       <r>     1.9891     0.0000     0.0000 </r>
       <r>     2.1177     0.0000     0.0000 </r>
       <r>     2.2464     0.0000     0.0000 </r>
       <r>     2.3750     0.0000     0.0000 </r>
       <r>     2.5037     0.0000     0.0000 </r>
       <r>     2.6323     0.0000     0.0000 </r>
       <r>     2.7610     0.0000     0.0000 </r>
       <r>     2.8896     0.0000     0.0000 </r>
       <r>     3.0183     0.0000     0.0000 </r>
       <r>     3.1469     0.0000     0.0000 </r>
       <r>     3.2756     0.0000     0.0000 </r>
       <r>     3.4042     0.0000     0.0000 </r>
       <r>     3.5329     0.0000     0.0000 </r>
       <r>     3.6615     0.0000     0.0000 </r>
       <r>     3.7902     0.0000     0.0000 </r>
       <r>     3.9188     0.0000     0.0000 </r>
       <r>     4.0475     0.0000     0.0000 </r>
       <r>     4.1761     0.0000     0.0000 </r>
       <r>     4.3048     0.0000     0.0000 </r>
       <r>     4.4335     0.0000     0.0000 </r>
       <r>     4.5621     0.0000     0.0000 </r>
       <r>     4.6908     0.0000     0.0000 </r>
       <r>     4.8194     0.0000     0.0000 </r>
       <r>     4.9481     0.0000     0.0000 </r>
       <r>     5.0767     0.0000     0.0000 </r>
       <r>     5.2054     0.0000     0.0000 </r>
       <r>     5.3340     0.0000     0.0000 </r>
       <r>     5.4627     0.0000     0.0000 </r>
       <r>     5.5913     0.0000     0.0000 </r>
       <r>     5.7200     0.0000     0.0000 </r>
       <r>     5.8486     0.0000     0.0000 </r>
       <r>     5.9773     0.0000     0.0000 </r>
       <r>     6.1059     0.0000     0.0000 </r>
       <r>     6.2346     0.0000     0.0000 </r>
       <r>     6.3632     0.0000     0.0000 </r>
       <r>     6.4919     0.0000     0.0000 </r>
       <r>     6.6205     0.0000     0.0000 </r>
       <r>     6.7492     0.0000     0.0000 </r>
       <r>     6.8778     0.0000     0.0000 </r>
       <r>     7.0065     0.0000     0.0000 </r>
       <r>     7.1351     0.0000     0.0000 </r>
       <r>     7.2638     0.0000     0.0000 </r>
       <r>     7.3924     0.0000     0.0000 </r>
       <r>     7.5211     0.0000     0.0000 </r>
       <r>     7.6497     0.0000     0.0000 </r>
       <r>     7.7784     0.0000     0.0000 </r>
       <r>     7.9070     0.0000     0.0000 </r>
       <r>     8.0357     0.0000     0.0000 </r>
       <r>     8.1643     0.0000     0.0000 </r>
       <r>     8.2930     0.0000     0.0000 </r>
       <r>     8.4216     0.0000     0.0000 </r>
       <r>     8.5503     0.0000     0.0000 </r>
       <r>     8.6789     0.0000     0.0000 </r>
       <r>     8.8076     0.0000     0.0000 </r>
       <r>     8.9362     0.0000     0.0000 </r>
       <r>     9.0649     0.0000     0.0000 </r>
       <r>     9.1935     0.0000     0.0000 </r>
       <r>     9.3222     0.0000     0.0000 </r>
       <r>     9.4508     0.0000     0.0000 </r>
       <r>     9.5795     0.0000     0.0000 </r>
       <r>     9.7081     0.0000     0.0000 </r>
       <r>     9.8368     0.0000     0.0000 </r>
       <r>     9.9654     0.0000     0.0000 </r>
       <r>    10.0941     0.0000     0.0000 </r>
       <r>    10.2228     0.0000     0.0000 </r>
       <r>    10.3514     0.0000     0.0000 </r>
       <r>    10.4801     0.0000     0.0000 </r>
       <r>    10.6087     0.0000     0.0000 </r>
       <r>    10.7374     0.0000     0.0000 </r>
       <r>    10.8660     0.0000     0.0000 </r>
       <r>    10.9947     0.0000     0.0000 </r>
       <r>    11.1233     0.0000     0.0000 </r>
       <r>    11.2520     0.0000     0.0000 </r>
       <r>    11.3806     0.0000     0.0000 </r>
       <r>    11.5093     0.0000     0.0000 </r>
       <r>    11.6379     0.0000     0.0000 </r>
       <r>    11.7666     0.0000     0.0000 </r>
       <r>    11.8952     0.0000     0.0000 </r>
       <r>    12.0239     0.0000     0.0000 </r>
       <r>    12.1525     0.0000     0.0000 </r>
       <r>    12.2812     0.0000     0.0000 </r>
       <r>    12.4098     0.0000     0.0000 </r>
       <r>    12.5385     0.0000     0.0000 </r>
       <r>    12.6671     0.0000     0.0000 </r>
       <r>    12.7958     0.0000     0.0000 </r>
       <r>    12.9244     0.0000     0.0000 </r>
       <r>    13.0531     0.0000     0.0000 </r>
       <r>    13.1817     0.0000     0.0000 </r>
       <r>    13.3104     0.0000     0.0000 </r>
       <r>    13.4390     0.0000     0.0000 </r>
       <r>    13.5677     0.0000     0.0000 </r>
       <r>    13.6963     0.0000     0.0000 </r>
       <r>    13.8250     0.0000     0.0000 </r>
       <r>    13.9536     0.0000     0.0000 </r>
       <r>    14.0823     0.0000     0.0000 </r>
       <r>    14.2109     0.0000     0.0000 </r>
       <r>    14.3396     0.0000     0.0000 </r>
       <r>    14.4682     0.0000     0.0000 </r>
       <r>    14.5969     0.0000     0.0000 </r>
       <r>    14.7255     0.0000     0.0000 </r>
       <r>    14.8542     0.0000     0.0000 </r>
       <r>    14.9828     0.0000     0.0000 </r>
       <r>    15.1115     0.0000     0.0000 </r>
       <r>    15.2401     0.0000     0.0000 </r>
       <r>    15.3688     0.0000     0.0000 </r>
       <r>    15.4974     0.0000     0.0000 </r>
       <r>    15.6261     0.0000     0.0000 </r>
       <r>    15.7547     0.0000     0.0000 </r>
       <r>    15.8834     0.0000     0.0000 </r>
       <r>    16.0121     0.0000     0.0000 </r>
       <r>    16.1407     0.0000     0.0000 </r>
       <r>    16.2694     0.0000     0.0000 </r>
       <r>    16.3980     0.0000     0.0000 </r>
       <r>    16.5267     0.0000     0.0000 </r>
       <r>    16.6553     0.0000     0.0000 </r>
       <r>    16.7840     0.0000     0.0000 </r>
       <r>    16.9126     0.0000     0.0000 </r>
       <r>    17.0413     0.0000     0.0000 </r>
       <r>    17.1699     0.0000     0.0000 </r>
       <r>    17.2986     0.0000     0.0000 </r>
       <r>    17.4272     0.0000     0.0000 </r>
      </set>
     </set>
    </array>
   </total>
  </dos>
 </calculation>
 <structure name="finalpos" >
  <crystal>
   <varray name="basis" >
    <v>       4.00933418       0.00000000       0.00000000 </v>
    <v>       2.00466709       3.47218525      -0.00000000 </v>
    <v>       2.00466709       1.15739508       3.27360765 </v>
   </varray>
   <i name="volume">     45.57238633 </i>
   <varray name="rec_basis" >
    <v>       0.24941797      -0.14400153      -0.10182446 </v>
    <v>       0.00000000       0.28800307      -0.10182446 </v>
    <v>      -0.00000000       0.00000000       0.30547338 </v>
   </varray>
  </crystal>
  <varray name="positions" >
   <v>       0.00000000       0.00000000       0.00000000 </v>
  </varray>
  <varray name="velocities" >
   <v>       0.00000000       0.00000000       0.00000000 </v>
  </varray>
 </structure>
</modeling>
