Og_FCC                                  
           1
     4.009334    0.000000    0.000000
     2.004667    3.472185   -0.000000
     2.004667    1.157395    3.273608
   Kr
   1
Direct configuration=     1
   0.00000000  0.00000000  0.00000000
