   1   1   0   0
  0.6083477E+02  0.4414576E-09  0.4414576E-09  0.4414576E-09  0.1000000E-15
  1.000000000000000E-004
  CAR 
 Og_FCC                                  
     23.20832599   -206.59869984  301     -0.15538831      1.00000000
   -206.599  0.0000E+00  0.0000E+00
   -205.833  0.0000E+00  0.0000E+00
   -205.067  0.0000E+00  0.0000E+00
   -204.301  0.0000E+00  0.0000E+00
   -203.535  0.0000E+00  0.0000E+00
   -202.769  0.0000E+00  0.0000E+00
   -202.003  0.0000E+00  0.0000E+00
   -201.237  0.0000E+00  0.0000E+00
   -200.471  0.0000E+00  0.0000E+00
   -199.704  0.0000E+00  0.0000E+00
   -198.938  0.0000E+00  0.0000E+00
   -198.172  0.0000E+00  0.0000E+00
   -197.406  0.0000E+00  0.0000E+00
   -196.640  0.0000E+00  0.0000E+00
   -195.874  0.0000E+00  0.2000E+01
   -195.108  0.0000E+00  0.2000E+01
   -194.342  0.0000E+00  0.2000E+01
   -193.576  0.0000E+00  0.2000E+01
   -192.810  0.0000E+00  0.2000E+01
   -192.044  0.0000E+00  0.2000E+01
   -191.278  0.0000E+00  0.2000E+01
   -190.512  0.0000E+00  0.2000E+01
   -189.746  0.0000E+00  0.2000E+01
   -188.980  0.0000E+00  0.2000E+01
   -188.214  0.0000E+00  0.2000E+01
   -187.448  0.0000E+00  0.2000E+01
   -186.682  0.0000E+00  0.2000E+01
   -185.916  0.0000E+00  0.2000E+01
   -185.150  0.0000E+00  0.2000E+01
   -184.384  0.0000E+00  0.2000E+01
   -183.618  0.0000E+00  0.2000E+01
   -182.852  0.0000E+00  0.2000E+01
   -182.086  0.0000E+00  0.2000E+01
   -181.320  0.0000E+00  0.2000E+01
   -180.554  0.0000E+00  0.2000E+01
   -179.788  0.0000E+00  0.2000E+01
   -179.022  0.0000E+00  0.2000E+01
   -178.256  0.0000E+00  0.2000E+01
   -177.490  0.0000E+00  0.2000E+01
   -176.724  0.0000E+00  0.2000E+01
   -175.958  0.0000E+00  0.2000E+01
   -175.192  0.0000E+00  0.2000E+01
   -174.426  0.0000E+00  0.2000E+01
   -173.660  0.0000E+00  0.2000E+01
   -172.894  0.0000E+00  0.2000E+01
   -172.128  0.0000E+00  0.2000E+01
   -171.362  0.0000E+00  0.2000E+01
   -170.596  0.0000E+00  0.2000E+01
   -169.830  0.0000E+00  0.2000E+01
   -169.064  0.0000E+00  0.2000E+01
   -168.298  0.0000E+00  0.2000E+01
   -167.532  0.0000E+00  0.2000E+01
   -166.765  0.0000E+00  0.2000E+01
   -165.999  0.0000E+00  0.2000E+01
   -165.233  0.0000E+00  0.2000E+01
   -164.467  0.0000E+00  0.2000E+01
   -163.701  0.0000E+00  0.2000E+01
   -162.935  0.0000E+00  0.2000E+01
   -162.169  0.0000E+00  0.2000E+01
   -161.403  0.0000E+00  0.2000E+01
   -160.637  0.0000E+00  0.2000E+01
   -159.871  0.0000E+00  0.2000E+01
   -159.105  0.0000E+00  0.2000E+01
   -158.339  0.0000E+00  0.2000E+01
   -157.573  0.0000E+00  0.2000E+01
   -156.807  0.0000E+00  0.2000E+01
   -156.041  0.0000E+00  0.2000E+01
   -155.275  0.0000E+00  0.2000E+01
   -154.509  0.0000E+00  0.2000E+01
   -153.743  0.0000E+00  0.2000E+01
   -152.977  0.0000E+00  0.2000E+01
   -152.211  0.0000E+00  0.2000E+01
   -151.445  0.0000E+00  0.2000E+01
   -150.679  0.0000E+00  0.2000E+01
   -149.913  0.0000E+00  0.2000E+01
   -149.147  0.0000E+00  0.2000E+01
   -148.381  0.0000E+00  0.2000E+01
   -147.615  0.0000E+00  0.2000E+01
   -146.849  0.0000E+00  0.2000E+01
   -146.083  0.0000E+00  0.2000E+01
   -145.317  0.0000E+00  0.2000E+01
   -144.551  0.0000E+00  0.2000E+01
   -143.785  0.0000E+00  0.2000E+01
   -143.019  0.0000E+00  0.2000E+01
   -142.253  0.0000E+00  0.2000E+01
   -141.487  0.0000E+00  0.4000E+01
   -140.721  0.0000E+00  0.4000E+01
   -139.955  0.0000E+00  0.4000E+01
   -139.189  0.0000E+00  0.4000E+01
   -138.423  0.0000E+00  0.4000E+01
   -137.657  0.0000E+00  0.4000E+01
   -136.891  0.0000E+00  0.4000E+01
   -136.125  0.0000E+00  0.4000E+01
   -135.359  0.0000E+00  0.4000E+01
   -134.592  0.0000E+00  0.4000E+01
   -133.826  0.0000E+00  0.4000E+01
   -133.060  0.0000E+00  0.4000E+01
   -132.294  0.0000E+00  0.4000E+01
   -131.528  0.0000E+00  0.4000E+01
   -130.762  0.0000E+00  0.4000E+01
   -129.996  0.0000E+00  0.4000E+01
   -129.230  0.0000E+00  0.4000E+01
   -128.464  0.0000E+00  0.4000E+01
   -127.698  0.0000E+00  0.4000E+01
   -126.932  0.0000E+00  0.4000E+01
   -126.166  0.0000E+00  0.4000E+01
   -125.400  0.0000E+00  0.4000E+01
   -124.634  0.0000E+00  0.4000E+01
   -123.868  0.0000E+00  0.4000E+01
   -123.102  0.0000E+00  0.4000E+01
   -122.336  0.0000E+00  0.4000E+01
   -121.570  0.0000E+00  0.4000E+01
   -120.804  0.0000E+00  0.4000E+01
   -120.038  0.0000E+00  0.4000E+01
   -119.272  0.0000E+00  0.4000E+01
   -118.506  0.0000E+00  0.4000E+01
   -117.740  0.0000E+00  0.4000E+01
   -116.974  0.0000E+00  0.4000E+01
   -116.208  0.0000E+00  0.4000E+01
   -115.442  0.0000E+00  0.4000E+01
   -114.676  0.0000E+00  0.4000E+01
   -113.910  0.0000E+00  0.4000E+01
   -113.144  0.0000E+00  0.8000E+01
   -112.378  0.0000E+00  0.8000E+01
   -111.612  0.0000E+00  0.8000E+01
   -110.846  0.0000E+00  0.8000E+01
   -110.080  0.0000E+00  0.8000E+01
   -109.314  0.0000E+00  0.8000E+01
   -108.548  0.0000E+00  0.8000E+01
   -107.782  0.0000E+00  0.8000E+01
   -107.016  0.0000E+00  0.8000E+01
   -106.250  0.0000E+00  0.8000E+01
   -105.484  0.0000E+00  0.8000E+01
   -104.718  0.0000E+00  0.8000E+01
   -103.952  0.0000E+00  0.8000E+01
   -103.186  0.0000E+00  0.8000E+01
   -102.420  0.0000E+00  0.8000E+01
   -101.653  0.0000E+00  0.8000E+01
   -100.887  0.0000E+00  0.8000E+01
   -100.121  0.0000E+00  0.8000E+01
    -99.355  0.0000E+00  0.8000E+01
    -98.589  0.0000E+00  0.8000E+01
    -97.823  0.0000E+00  0.8000E+01
    -97.057  0.0000E+00  0.8000E+01
    -96.291  0.0000E+00  0.8000E+01
    -95.525  0.0000E+00  0.8000E+01
    -94.759  0.0000E+00  0.8000E+01
    -93.993  0.0000E+00  0.8000E+01
    -93.227  0.0000E+00  0.8000E+01
    -92.461  0.0000E+00  0.8000E+01
    -91.695  0.0000E+00  0.8000E+01
    -90.929  0.0000E+00  0.8000E+01
    -90.163  0.0000E+00  0.8000E+01
    -89.397  0.0000E+00  0.8000E+01
    -88.631  0.0000E+00  0.8000E+01
    -87.865  0.0000E+00  0.8000E+01
    -87.099  0.0000E+00  0.8000E+01
    -86.333  0.0000E+00  0.8000E+01
    -85.567  0.0000E+00  0.8000E+01
    -84.801  0.0000E+00  0.8000E+01
    -84.035  0.0000E+00  0.8000E+01
    -83.269  0.0000E+00  0.8000E+01
    -82.503  0.0000E+00  0.8000E+01
    -81.737  0.0000E+00  0.8000E+01
    -80.971  0.0000E+00  0.8000E+01
    -80.205  0.0000E+00  0.8000E+01
    -79.439  0.0000E+00  0.8000E+01
    -78.673  0.0000E+00  0.8000E+01
    -77.907  0.0000E+00  0.8000E+01
    -77.141  0.0000E+00  0.8000E+01
    -76.375  0.0000E+00  0.8000E+01
    -75.609  0.0000E+00  0.8000E+01
    -74.843  0.0000E+00  0.8000E+01
    -74.077  0.0000E+00  0.8000E+01
    -73.311  0.0000E+00  0.8000E+01
    -72.545  0.0000E+00  0.8000E+01
    -71.779  0.0000E+00  0.8000E+01
    -71.013  0.0000E+00  0.8000E+01
    -70.247  0.0000E+00  0.8000E+01
    -69.481  0.0000E+00  0.8000E+01
    -68.714  0.0000E+00  0.8000E+01
    -67.948  0.0000E+00  0.8000E+01
    -67.182  0.0000E+00  0.8000E+01
    -66.416  0.0000E+00  0.8000E+01
    -65.650  0.0000E+00  0.8000E+01
    -64.884  0.0000E+00  0.8000E+01
    -64.118  0.0000E+00  0.8000E+01
    -63.352  0.0000E+00  0.8000E+01
    -62.586  0.0000E+00  0.8000E+01
    -61.820  0.0000E+00  0.8000E+01
    -61.054  0.0000E+00  0.8000E+01
    -60.288  0.0000E+00  0.8000E+01
    -59.522  0.0000E+00  0.8000E+01
    -58.756  0.0000E+00  0.8000E+01
    -57.990  0.0000E+00  0.8000E+01
    -57.224  0.0000E+00  0.8000E+01
    -56.458  0.0000E+00  0.8000E+01
    -55.692  0.0000E+00  0.8000E+01
    -54.926  0.0000E+00  0.8000E+01
    -54.160  0.0000E+00  0.8000E+01
    -53.394  0.0000E+00  0.8000E+01
    -52.628  0.0000E+00  0.8000E+01
    -51.862  0.0000E+00  0.8000E+01
    -51.096  0.0000E+00  0.8000E+01
    -50.330  0.0000E+00  0.8000E+01
    -49.564  0.0000E+00  0.8000E+01
    -48.798  0.0000E+00  0.8000E+01
    -48.032  0.0000E+00  0.8000E+01
    -47.266  0.0000E+00  0.8000E+01
    -46.500  0.0000E+00  0.8000E+01
    -45.734  0.0000E+00  0.8000E+01
    -44.968  0.0000E+00  0.8000E+01
    -44.202  0.0000E+00  0.8000E+01
    -43.436  0.5222E+01  0.1200E+02
    -42.670  0.0000E+00  0.1200E+02
    -41.904  0.0000E+00  0.1200E+02
    -41.138  0.0000E+00  0.1200E+02
    -40.372  0.0000E+00  0.1200E+02
    -39.606  0.0000E+00  0.1200E+02
    -38.840  0.0000E+00  0.1800E+02
    -38.074  0.0000E+00  0.1800E+02
    -37.308  0.0000E+00  0.1800E+02
    -36.542  0.0000E+00  0.1800E+02
    -35.775  0.0000E+00  0.1800E+02
    -35.009  0.0000E+00  0.1800E+02
    -34.243  0.0000E+00  0.1800E+02
    -33.477  0.0000E+00  0.1800E+02
    -32.711  0.0000E+00  0.1800E+02
    -31.945  0.0000E+00  0.1800E+02
    -31.179  0.0000E+00  0.1800E+02
    -30.413  0.0000E+00  0.1800E+02
    -29.647  0.0000E+00  0.1800E+02
    -28.881  0.0000E+00  0.1800E+02
    -28.115  0.0000E+00  0.1800E+02
    -27.349  0.0000E+00  0.1800E+02
    -26.583  0.0000E+00  0.1800E+02
    -25.817  0.0000E+00  0.1800E+02
    -25.051  0.0000E+00  0.1800E+02
    -24.285  0.0000E+00  0.1800E+02
    -23.519  0.0000E+00  0.1800E+02
    -22.753  0.0000E+00  0.1800E+02
    -21.987  0.0000E+00  0.1800E+02
    -21.221  0.0000E+00  0.1800E+02
    -20.455  0.0000E+00  0.1800E+02
    -19.689  0.0000E+00  0.1800E+02
    -18.923  0.0000E+00  0.1800E+02
    -18.157  0.0000E+00  0.1800E+02
    -17.391  0.0000E+00  0.1800E+02
    -16.625  0.1418E-03  0.1800E+02
    -15.859  0.0000E+00  0.2000E+02
    -15.093  0.0000E+00  0.2000E+02
    -14.327  0.0000E+00  0.2000E+02
    -13.561  0.0000E+00  0.2000E+02
    -12.795  0.0000E+00  0.2000E+02
    -12.029  0.0000E+00  0.2000E+02
    -11.263  0.0000E+00  0.2000E+02
    -10.497  0.0000E+00  0.2000E+02
     -9.731  0.0000E+00  0.2000E+02
     -8.965  0.0000E+00  0.2000E+02
     -8.199  0.0000E+00  0.2000E+02
     -7.433  0.0000E+00  0.2000E+02
     -6.667  0.0000E+00  0.2000E+02
     -5.901  0.0000E+00  0.2000E+02
     -5.135  0.0000E+00  0.2000E+02
     -4.369  0.1812E+01  0.2142E+02
     -3.602  0.1209E-01  0.2200E+02
     -2.836  0.0000E+00  0.2200E+02
     -2.070  0.6577E-12  0.2200E+02
     -1.304  0.2888E+00  0.2397E+02
     -0.538  0.1961E+00  0.2578E+02
      0.228  0.0000E+00  0.2600E+02
      0.994  0.0000E+00  0.2600E+02
      1.760  0.0000E+00  0.2600E+02
      2.526  0.0000E+00  0.2600E+02
      3.292  0.1342E-17  0.2600E+02
      4.058  0.0000E+00  0.2601E+02
      4.824  0.0000E+00  0.2614E+02
      5.590  0.3714E+00  0.2667E+02
      6.356  0.1986E+00  0.2774E+02
      7.122  0.4351E+00  0.2864E+02
      7.888  0.7118E-11  0.3003E+02
      8.654  0.3880E+00  0.3110E+02
      9.420  0.2175E+00  0.3278E+02
     10.186  0.2901E+00  0.3383E+02
     10.952  0.9476E-01  0.3470E+02
     11.718  0.1050E-07  0.3561E+02
     12.484  0.3626E-01  0.3586E+02
     13.250  0.0000E+00  0.3600E+02
     14.016  0.0000E+00  0.3600E+02
     14.782  0.0000E+00  0.3600E+02
     15.548  0.0000E+00  0.3600E+02
     16.314  0.0000E+00  0.3600E+02
     17.080  0.0000E+00  0.3600E+02
     17.846  0.0000E+00  0.3600E+02
     18.612  0.0000E+00  0.3600E+02
     19.378  0.0000E+00  0.3600E+02
     20.144  0.0000E+00  0.3600E+02
     20.910  0.0000E+00  0.3600E+02
     21.676  0.0000E+00  0.3600E+02
     22.442  0.0000E+00  0.3600E+02
     23.208  0.0000E+00  0.3600E+02
