    1    1    1    1
  0.6083477E+02  0.4414576E-09  0.4414576E-09  0.4414576E-09  0.1000000E-15
  1.000000000000000E-004
  CAR 
 Og_FCC                                  
     26    216     36
 
  0.0000000E+00  0.0000000E+00  0.0000000E+00  0.4629630E-02
    1     -196.141339   1.000000
    2     -196.141338   1.000000
    3     -141.775212   1.000000
    4     -141.775212   1.000000
    5     -113.615555   1.000000
    6     -113.615555   1.000000
    7     -113.615552   1.000000
    8     -113.615552   1.000000
    9      -43.540777   1.000000
   10      -43.540777   1.000000
   11      -43.540774   1.000000
   12      -43.540774   1.000000
   13      -39.130788   1.000000
   14      -39.130788   1.000000
   15      -39.129235   1.000000
   16      -39.129235   1.000000
   17      -39.129231   1.000000
   18      -39.129231   1.000000
   19      -16.592849   1.000000
   20      -16.592849   1.000000
   21       -3.732606   1.000000
   22       -3.732606   1.000000
   23       -0.271631   1.000000
   24       -0.271631   1.000000
   25       -0.271631   1.000000
   26       -0.271631   1.000000
   27        3.407969   0.000000
   28        3.407969   0.000000
   29        8.677097   0.000000
   30        8.677097   0.000000
   31        8.677097   0.000000
   32        8.677097   0.000000
   33        8.834766   0.000000
   34        8.834766   0.000000
   35       10.433386   0.000000
   36       10.433387   0.000000
 
  0.1666667E+00  0.1538294E-16  0.3469447E-16  0.4629630E-02
    1     -196.127954   1.000000
    2     -196.127954   1.000000
    3     -141.744874   1.000000
    4     -141.744874   1.000000
    5     -113.615011   1.000000
    6     -113.615011   1.000000
    7     -113.614456   1.000000
    8     -113.614456   1.000000
    9      -43.536701   1.000000
   10      -43.536701   1.000000
   11      -43.528756   1.000000
   12      -43.528756   1.000000
   13      -39.128321   1.000000
   14      -39.128321   1.000000
   15      -39.124808   1.000000
   16      -39.124808   1.000000
   17      -39.123255   1.000000
   18      -39.123255   1.000000
   19      -16.551912   1.000000
   20      -16.551912   1.000000
   21       -3.907821   1.000000
   22       -3.907821   1.000000
   23       -0.859116   1.000000
   24       -0.859116   1.000000
   25       -0.350189   1.000000
   26       -0.350189   1.000000
   27        4.307389   0.000000
   28        4.307389   0.000000
   29        7.999209   0.000000
   30        7.999210   0.000000
   31        8.876270   0.000000
   32        8.876270   0.000000
   33        9.027397   0.000000
   34        9.027397   0.000000
   35       10.466847   0.000000
   36       10.475411   0.000000
 
  0.3333333E+00  0.5852146E-16  0.6938894E-16  0.4629630E-02
    1     -196.152926   1.000000
    2     -196.152926   1.000000
    3     -141.809858   1.000000
    4     -141.809858   1.000000
    5     -113.615042   1.000000
    6     -113.615042   1.000000
    7     -113.614989   1.000000
    8     -113.614989   1.000000
    9      -43.548987   1.000000
   10      -43.548987   1.000000
   11      -43.546924   1.000000
   12      -43.546924   1.000000
   13      -39.132864   1.000000
   14      -39.132864   1.000000
   15      -39.132213   1.000000
   16      -39.132213   1.000000
   17      -39.131317   1.000000
   18      -39.131317   1.000000
   19      -16.468382   1.000000
   20      -16.468382   1.000000
   21       -4.290604   1.000000
   22       -4.290604   1.000000
   23       -1.568735   1.000000
   24       -1.568735   1.000000
   25       -0.500545   1.000000
   26       -0.500545   1.000000
   27        5.163468   0.000000
   28        5.163468   0.000000
   29        8.410766   0.000000
   30        8.410766   0.000000
   31        8.547656   0.000000
   32        8.547656   0.000000
   33        8.719137   0.000000
   34        8.719137   0.000000
   35       10.498261   0.000000
   36       10.498262   0.000000
 
  0.5000000E+00  0.3227103E-16  0.5551115E-16  0.4629630E-02
    1     -196.135065   1.000000
    2     -196.135065   1.000000
    3     -141.761270   1.000000
    4     -141.761270   1.000000
    5     -113.614681   1.000000
    6     -113.614681   1.000000
    7     -113.614371   1.000000
    8     -113.614371   1.000000
    9      -43.537288   1.000000
   10      -43.537288   1.000000
   11      -43.536253   1.000000
   12      -43.536253   1.000000
   13      -39.127756   1.000000
   14      -39.127755   1.000000
   15      -39.127253   1.000000
   16      -39.127253   1.000000
   17      -39.126348   1.000000
   18      -39.126348   1.000000
   19      -16.424862   1.000000
   20      -16.424862   1.000000
   21       -4.490484   1.000000
   22       -4.490484   1.000000
   23       -1.807346   1.000000
   24       -1.807346   1.000000
   25       -0.568339   1.000000
   26       -0.568339   1.000000
   27        5.206318   0.000000
   28        5.206318   0.000000
   29        8.291942   0.000000
   30        8.291942   0.000000
   31        8.449619   0.000000
   32        8.449619   0.000000
   33        9.108488   0.000000
   34        9.108488   0.000000
   35       10.855900   0.000000
   36       10.855901   0.000000
 
 -0.3333333E+00 -0.5852146E-16 -0.6938894E-16  0.4629630E-02
    1     -196.152926   1.000000
    2     -196.152926   1.000000
    3     -141.809858   1.000000
    4     -141.809858   1.000000
    5     -113.615042   1.000000
    6     -113.615042   1.000000
    7     -113.614989   1.000000
    8     -113.614989   1.000000
    9      -43.548987   1.000000
   10      -43.548987   1.000000
   11      -43.546924   1.000000
   12      -43.546924   1.000000
   13      -39.132864   1.000000
   14      -39.132864   1.000000
   15      -39.132213   1.000000
   16      -39.132213   1.000000
   17      -39.131317   1.000000
   18      -39.131317   1.000000
   19      -16.468382   1.000000
   20      -16.468382   1.000000
   21       -4.290604   1.000000
   22       -4.290604   1.000000
   23       -1.568735   1.000000
   24       -1.568735   1.000000
   25       -0.500545   1.000000
   26       -0.500545   1.000000
   27        5.163468   0.000000
   28        5.163468   0.000000
   29        8.410766   0.000000
   30        8.410766   0.000000
   31        8.547656   0.000000
   32        8.547656   0.000000
   33        8.719137   0.000000
   34        8.719137   0.000000
   35       10.498261   0.000000
   36       10.498262   0.000000
 
 -0.1666667E+00 -0.1538294E-16 -0.3469447E-16  0.4629630E-02
    1     -196.127954   1.000000
    2     -196.127954   1.000000
    3     -141.744874   1.000000
    4     -141.744874   1.000000
    5     -113.615011   1.000000
    6     -113.615011   1.000000
    7     -113.614456   1.000000
    8     -113.614456   1.000000
    9      -43.536701   1.000000
   10      -43.536701   1.000000
   11      -43.528756   1.000000
   12      -43.528756   1.000000
   13      -39.128321   1.000000
   14      -39.128321   1.000000
   15      -39.124808   1.000000
   16      -39.124808   1.000000
   17      -39.123255   1.000000
   18      -39.123255   1.000000
   19      -16.551912   1.000000
   20      -16.551912   1.000000
   21       -3.907821   1.000000
   22       -3.907821   1.000000
   23       -0.859116   1.000000
   24       -0.859116   1.000000
   25       -0.350189   1.000000
   26       -0.350189   1.000000
   27        4.307389   0.000000
   28        4.307389   0.000000
   29        7.999209   0.000000
   30        7.999210   0.000000
   31        8.876270   0.000000
   32        8.876270   0.000000
   33        9.027397   0.000000
   34        9.027397   0.000000
   35       10.470636   0.000000
   36       10.528791   0.000000
 
  0.0000000E+00  0.1666667E+00 -0.6938894E-17  0.4629630E-02
    1     -196.127954   1.000000
    2     -196.127954   1.000000
    3     -141.744874   1.000000
    4     -141.744874   1.000000
    5     -113.615011   1.000000
    6     -113.615011   1.000000
    7     -113.614456   1.000000
    8     -113.614456   1.000000
    9      -43.536701   1.000000
   10      -43.536701   1.000000
   11      -43.528756   1.000000
   12      -43.528756   1.000000
   13      -39.128321   1.000000
   14      -39.128321   1.000000
   15      -39.124808   1.000000
   16      -39.124808   1.000000
   17      -39.123255   1.000000
   18      -39.123255   1.000000
   19      -16.551912   1.000000
   20      -16.551912   1.000000
   21       -3.907821   1.000000
   22       -3.907821   1.000000
   23       -0.859116   1.000000
   24       -0.859116   1.000000
   25       -0.350189   1.000000
   26       -0.350189   1.000000
   27        4.307389   0.000000
   28        4.307389   0.000000
   29        7.999209   0.000000
   30        7.999210   0.000000
   31        8.876270   0.000000
   32        8.876270   0.000000
   33        9.027397   0.000000
   34        9.027397   0.000000
   35       10.466768   0.000000
   36       10.481839   0.000000
 
  0.1666667E+00  0.1666667E+00  0.2775558E-16  0.4629630E-02
    1     -196.125900   1.000000
    2     -196.125900   1.000000
    3     -141.739158   1.000000
    4     -141.739158   1.000000
    5     -113.614882   1.000000
    6     -113.614882   1.000000
    7     -113.614328   1.000000
    8     -113.614328   1.000000
    9      -43.531901   1.000000
   10      -43.531901   1.000000
   11      -43.529405   1.000000
   12      -43.529405   1.000000
   13      -39.126530   1.000000
   14      -39.126530   1.000000
   15      -39.125179   1.000000
   16      -39.125179   1.000000
   17      -39.121438   1.000000
   18      -39.121438   1.000000
   19      -16.538338   1.000000
   20      -16.538338   1.000000
   21       -3.952852   1.000000
   22       -3.952852   1.000000
   23       -0.916269   1.000000
   24       -0.916269   1.000000
   25       -0.515570   1.000000
   26       -0.515570   1.000000
   27        4.633837   0.000000
   28        4.633837   0.000000
   29        7.490866   0.000000
   30        7.490866   0.000000
   31        8.968799   0.000000
   32        8.968799   0.000000
   33        9.300403   0.000000
   34        9.300403   0.000000
   35        9.465002   0.000000
   36        9.465002   0.000000
 
  0.3333333E+00  0.1666667E+00  0.5551115E-16  0.4629630E-02
    1     -196.133937   1.000000
    2     -196.133936   1.000000
    3     -141.758873   1.000000
    4     -141.758873   1.000000
    5     -113.614712   1.000000
    6     -113.614712   1.000000
    7     -113.614604   1.000000
    8     -113.614604   1.000000
    9      -43.539254   1.000000
   10      -43.539254   1.000000
   11      -43.533424   1.000000
   12      -43.533424   1.000000
   13      -39.128751   1.000000
   14      -39.128751   1.000000
   15      -39.127099   1.000000
   16      -39.127099   1.000000
   17      -39.125090   1.000000
   18      -39.125090   1.000000
   19      -16.468742   1.000000
   20      -16.468742   1.000000
   21       -4.235253   1.000000
   22       -4.235253   1.000000
   23       -1.495268   1.000000
   24       -1.495268   1.000000
   25       -0.718333   1.000000
   26       -0.718333   1.000000
   27        5.615808   0.000000
   28        5.615808   0.000000
   29        7.293341   0.000000
   30        7.293341   0.000000
   31        7.980824   0.000000
   32        7.980824   0.000000
   33        9.484644   0.000000
   34        9.484644   0.000000
   35       10.624706   0.000000
   36       10.624706   0.000000
 
  0.5000000E+00  0.1666667E+00  0.5551115E-16  0.4629630E-02
    1     -196.133095   1.000000
    2     -196.133095   1.000000
    3     -141.754130   1.000000
    4     -141.754130   1.000000
    5     -113.614766   1.000000
    6     -113.614766   1.000000
    7     -113.614376   1.000000
    8     -113.614376   1.000000
    9      -43.538039   1.000000
   10      -43.538039   1.000000
   11      -43.532797   1.000000
   12      -43.532797   1.000000
   13      -39.128413   1.000000
   14      -39.128413   1.000000
   15      -39.127500   1.000000
   16      -39.127500   1.000000
   17      -39.123946   1.000000
   18      -39.123946   1.000000
   19      -16.411308   1.000000
   20      -16.411307   1.000000
   21       -4.468922   1.000000
   22       -4.468922   1.000000
   23       -1.855244   1.000000
   24       -1.855244   1.000000
   25       -0.868920   1.000000
   26       -0.868919   1.000000
   27        5.889446   0.000000
   28        5.889446   0.000000
   29        7.318893   0.000000
   30        7.318893   0.000000
   31        8.799833   0.000000
   32        8.799833   0.000000
   33        9.067010   0.000000
   34        9.067010   0.000000
   35       11.475376   0.000000
   36       11.475377   0.000000
 
 -0.3333333E+00  0.1666667E+00 -0.7632783E-16  0.4629630E-02
    1     -196.134374   1.000000
    2     -196.134374   1.000000
    3     -141.758153   1.000000
    4     -141.758153   1.000000
    5     -113.614652   1.000000
    6     -113.614652   1.000000
    7     -113.614431   1.000000
    8     -113.614431   1.000000
    9      -43.537718   1.000000
   10      -43.537718   1.000000
   11      -43.534880   1.000000
   12      -43.534880   1.000000
   13      -39.127994   1.000000
   14      -39.127994   1.000000
   15      -39.127381   1.000000
   16      -39.127381   1.000000
   17      -39.125416   1.000000
   18      -39.125416   1.000000
   19      -16.425683   1.000000
   20      -16.425683   1.000000
   21       -4.412247   1.000000
   22       -4.412247   1.000000
   23       -1.796983   1.000000
   24       -1.796983   1.000000
   25       -0.816063   1.000000
   26       -0.816063   1.000000
   27        6.004797   0.000000
   28        6.004797   0.000000
   29        7.475303   0.000000
   30        7.475303   0.000000
   31        8.509221   0.000000
   32        8.509221   0.000000
   33        8.935591   0.000000
   34        8.935591   0.000000
   35       10.966027   0.000000
   36       10.966027   0.000000
 
 -0.1666667E+00  0.1666667E+00 -0.3250864E-16  0.4629630E-02
    1     -196.133936   1.000000
    2     -196.133936   1.000000
    3     -141.760908   1.000000
    4     -141.760908   1.000000
    5     -113.614679   1.000000
    6     -113.614679   1.000000
    7     -113.614580   1.000000
    8     -113.614580   1.000000
    9      -43.539031   1.000000
   10      -43.539031   1.000000
   11      -43.534272   1.000000
   12      -43.534272   1.000000
   13      -39.128986   1.000000
   14      -39.128986   1.000000
   15      -39.126721   1.000000
   16      -39.126721   1.000000
   17      -39.125354   1.000000
   18      -39.125354   1.000000
   19      -16.496636   1.000000
   20      -16.496636   1.000000
   21       -4.133014   1.000000
   22       -4.133014   1.000000
   23       -1.338017   1.000000
   24       -1.338017   1.000000
   25       -0.575281   1.000000
   26       -0.575281   1.000000
   27        5.344802   0.000000
   28        5.344802   0.000000
   29        7.616492   0.000000
   30        7.616492   0.000000
   31        8.349629   0.000000
   32        8.349629   0.000000
   33        9.376563   0.000000
   34        9.376563   0.000000
   35        9.483729   0.000000
   36        9.483729   0.000000
 
  0.0000000E+00  0.3333333E+00  0.0000000E+00  0.4629630E-02
    1     -196.152926   1.000000
    2     -196.152926   1.000000
    3     -141.809858   1.000000
    4     -141.809858   1.000000
    5     -113.615042   1.000000
    6     -113.615042   1.000000
    7     -113.614989   1.000000
    8     -113.614989   1.000000
    9      -43.548987   1.000000
   10      -43.548987   1.000000
   11      -43.546924   1.000000
   12      -43.546924   1.000000
   13      -39.132864   1.000000
   14      -39.132864   1.000000
   15      -39.132213   1.000000
   16      -39.132213   1.000000
   17      -39.131317   1.000000
   18      -39.131317   1.000000
   19      -16.468382   1.000000
   20      -16.468382   1.000000
   21       -4.290604   1.000000
   22       -4.290604   1.000000
   23       -1.568735   1.000000
   24       -1.568735   1.000000
   25       -0.500545   1.000000
   26       -0.500545   1.000000
   27        5.163468   0.000000
   28        5.163468   0.000000
   29        8.410766   0.000000
   30        8.410766   0.000000
   31        8.547656   0.000000
   32        8.547656   0.000000
   33        8.719137   0.000000
   34        8.719138   0.000000
   35       10.498261   0.000000
   36       10.498261   0.000000
 
  0.1666667E+00  0.3333333E+00  0.2775558E-16  0.4629630E-02
    1     -196.133937   1.000000
    2     -196.133936   1.000000
    3     -141.758873   1.000000
    4     -141.758873   1.000000
    5     -113.614712   1.000000
    6     -113.614712   1.000000
    7     -113.614604   1.000000
    8     -113.614604   1.000000
    9      -43.539254   1.000000
   10      -43.539254   1.000000
   11      -43.533424   1.000000
   12      -43.533424   1.000000
   13      -39.128751   1.000000
   14      -39.128751   1.000000
   15      -39.127099   1.000000
   16      -39.127099   1.000000
   17      -39.125090   1.000000
   18      -39.125090   1.000000
   19      -16.468742   1.000000
   20      -16.468742   1.000000
   21       -4.235253   1.000000
   22       -4.235253   1.000000
   23       -1.495268   1.000000
   24       -1.495268   1.000000
   25       -0.718333   1.000000
   26       -0.718333   1.000000
   27        5.615808   0.000000
   28        5.615808   0.000000
   29        7.293341   0.000000
   30        7.293341   0.000000
   31        7.980824   0.000000
   32        7.980824   0.000000
   33        9.484644   0.000000
   34        9.484644   0.000000
   35       10.624706   0.000000
   36       10.624706   0.000000
 
  0.3333333E+00  0.3333333E+00  0.1110223E-15  0.4629630E-02
    1     -196.136209   1.000000
    2     -196.136209   1.000000
    3     -141.761452   1.000000
    4     -141.761452   1.000000
    5     -113.614901   1.000000
    6     -113.614901   1.000000
    7     -113.614796   1.000000
    8     -113.614796   1.000000
    9      -43.537586   1.000000
   10      -43.537586   1.000000
   11      -43.537169   1.000000
   12      -43.537169   1.000000
   13      -39.129136   1.000000
   14      -39.129136   1.000000
   15      -39.127046   1.000000
   16      -39.127046   1.000000
   17      -39.126921   1.000000
   18      -39.126921   1.000000
   19      -16.426971   1.000000
   20      -16.426971   1.000000
   21       -4.361978   1.000000
   22       -4.361978   1.000000
   23       -1.683815   1.000000
   24       -1.683815   1.000000
   25       -0.947682   1.000000
   26       -0.947682   1.000000
   27        5.483100   0.000000
   28        5.483100   0.000000
   29        6.386489   0.000000
   30        6.386489   0.000000
   31        8.770551   0.000000
   32        8.770551   0.000000
   33       10.738671   0.000000
   34       10.738671   0.000000
   35       11.112920   0.000000
   36       11.112920   0.000000
 
  0.5000000E+00  0.3333333E+00  0.5551115E-16  0.4629630E-02
    1     -196.135333   1.000000
    2     -196.135333   1.000000
    3     -141.757878   1.000000
    4     -141.757878   1.000000
    5     -113.614804   1.000000
    6     -113.614804   1.000000
    7     -113.614483   1.000000
    8     -113.614483   1.000000
    9      -43.539226   1.000000
   10      -43.539226   1.000000
   11      -43.534462   1.000000
   12      -43.534462   1.000000
   13      -39.129141   1.000000
   14      -39.129141   1.000000
   15      -39.127766   1.000000
   16      -39.127766   1.000000
   17      -39.125234   1.000000
   18      -39.125234   1.000000
   19      -16.383881   1.000000
   20      -16.383881   1.000000
   21       -4.499589   1.000000
   22       -4.499589   1.000000
   23       -1.905016   1.000000
   24       -1.905016   1.000000
   25       -1.171257   1.000000
   26       -1.171257   1.000000
   27        5.550576   0.000000
   28        5.550576   0.000000
   29        6.631241   0.000000
   30        6.631241   0.000000
   31        9.092783   0.000000
   32        9.092783   0.000000
   33       10.725226   0.000000
   34       10.725226   0.000000
   35       11.794133   0.000000
   36       11.794133   0.000000
 
 -0.3333333E+00  0.3333333E+00 -0.4976727E-16  0.4629630E-02
    1     -196.137994   1.000000
    2     -196.137994   1.000000
    3     -141.761766   1.000000
    4     -141.761766   1.000000
    5     -113.615133   1.000000
    6     -113.615133   1.000000
    7     -113.614720   1.000000
    8     -113.614720   1.000000
    9      -43.540007   1.000000
   10      -43.540007   1.000000
   11      -43.536575   1.000000
   12      -43.536575   1.000000
   13      -39.129748   1.000000
   14      -39.129748   1.000000
   15      -39.128197   1.000000
   16      -39.128197   1.000000
   17      -39.127013   1.000000
   18      -39.127013   1.000000
   19      -16.383261   1.000000
   20      -16.383261   1.000000
   21       -4.497301   1.000000
   22       -4.497301   1.000000
   23       -1.973989   1.000000
   24       -1.973989   1.000000
   25       -1.186490   1.000000
   26       -1.186490   1.000000
   27        6.087500   0.000000
   28        6.087500   0.000000
   29        7.494647   0.000000
   30        7.494647   0.000000
   31        8.774835   0.000000
   32        8.774836   0.000000
   33        9.944556   0.000000
   34        9.944556   0.000000
   35       10.550687   0.000000
   36       10.550687   0.000000
 
 -0.1666667E+00  0.3333333E+00 -0.2775558E-16  0.4629630E-02
    1     -196.134374   1.000000
    2     -196.134374   1.000000
    3     -141.758153   1.000000
    4     -141.758153   1.000000
    5     -113.614652   1.000000
    6     -113.614652   1.000000
    7     -113.614431   1.000000
    8     -113.614431   1.000000
    9      -43.537718   1.000000
   10      -43.537718   1.000000
   11      -43.534880   1.000000
   12      -43.534880   1.000000
   13      -39.127994   1.000000
   14      -39.127994   1.000000
   15      -39.127381   1.000000
   16      -39.127381   1.000000
   17      -39.125416   1.000000
   18      -39.125416   1.000000
   19      -16.425683   1.000000
   20      -16.425683   1.000000
   21       -4.412247   1.000000
   22       -4.412247   1.000000
   23       -1.796983   1.000000
   24       -1.796983   1.000000
   25       -0.816063   1.000000
   26       -0.816063   1.000000
   27        6.004797   0.000000
   28        6.004797   0.000000
   29        7.475303   0.000000
   30        7.475303   0.000000
   31        8.509220   0.000000
   32        8.509221   0.000000
   33        8.935591   0.000000
   34        8.935591   0.000000
   35       10.966026   0.000000
   36       10.966027   0.000000
 
  0.7703720E-33  0.5000000E+00  0.2775558E-16  0.4629630E-02
    1     -196.135065   1.000000
    2     -196.135065   1.000000
    3     -141.761270   1.000000
    4     -141.761270   1.000000
    5     -113.614681   1.000000
    6     -113.614681   1.000000
    7     -113.614371   1.000000
    8     -113.614371   1.000000
    9      -43.537288   1.000000
   10      -43.537288   1.000000
   11      -43.536253   1.000000
   12      -43.536253   1.000000
   13      -39.127755   1.000000
   14      -39.127755   1.000000
   15      -39.127253   1.000000
   16      -39.127253   1.000000
   17      -39.126348   1.000000
   18      -39.126348   1.000000
   19      -16.424862   1.000000
   20      -16.424862   1.000000
   21       -4.490484   1.000000
   22       -4.490484   1.000000
   23       -1.807346   1.000000
   24       -1.807346   1.000000
   25       -0.568339   1.000000
   26       -0.568339   1.000000
   27        5.206318   0.000000
   28        5.206318   0.000000
   29        8.291942   0.000000
   30        8.291942   0.000000
   31        8.449620   0.000000
   32        8.449620   0.000000
   33        9.108487   0.000000
   34        9.108488   0.000000
   35       10.855900   0.000000
   36       10.855900   0.000000
 
  0.1666667E+00  0.5000000E+00  0.0000000E+00  0.4629630E-02
    1     -196.133095   1.000000
    2     -196.133095   1.000000
    3     -141.754130   1.000000
    4     -141.754130   1.000000
    5     -113.614766   1.000000
    6     -113.614766   1.000000
    7     -113.614376   1.000000
    8     -113.614376   1.000000
    9      -43.538039   1.000000
   10      -43.538039   1.000000
   11      -43.532797   1.000000
   12      -43.532797   1.000000
   13      -39.128413   1.000000
   14      -39.128413   1.000000
   15      -39.127500   1.000000
   16      -39.127500   1.000000
   17      -39.123946   1.000000
   18      -39.123946   1.000000
   19      -16.411308   1.000000
   20      -16.411307   1.000000
   21       -4.468922   1.000000
   22       -4.468922   1.000000
   23       -1.855244   1.000000
   24       -1.855244   1.000000
   25       -0.868920   1.000000
   26       -0.868920   1.000000
   27        5.889446   0.000000
   28        5.889446   0.000000
   29        7.318893   0.000000
   30        7.318893   0.000000
   31        8.799833   0.000000
   32        8.799833   0.000000
   33        9.067010   0.000000
   34        9.067010   0.000000
   35       11.475376   0.000000
   36       11.475377   0.000000
 
  0.3333333E+00  0.5000000E+00  0.5551115E-16  0.4629630E-02
    1     -196.135333   1.000000
    2     -196.135333   1.000000
    3     -141.757878   1.000000
    4     -141.757878   1.000000
    5     -113.614804   1.000000
    6     -113.614804   1.000000
    7     -113.614483   1.000000
    8     -113.614483   1.000000
    9      -43.539226   1.000000
   10      -43.539226   1.000000
   11      -43.534462   1.000000
   12      -43.534462   1.000000
   13      -39.129141   1.000000
   14      -39.129141   1.000000
   15      -39.127766   1.000000
   16      -39.127766   1.000000
   17      -39.125234   1.000000
   18      -39.125234   1.000000
   19      -16.383881   1.000000
   20      -16.383881   1.000000
   21       -4.499589   1.000000
   22       -4.499589   1.000000
   23       -1.905016   1.000000
   24       -1.905016   1.000000
   25       -1.171257   1.000000
   26       -1.171257   1.000000
   27        5.550576   0.000000
   28        5.550576   0.000000
   29        6.631241   0.000000
   30        6.631241   0.000000
   31        9.092784   0.000000
   32        9.092784   0.000000
   33       10.725226   0.000000
   34       10.725226   0.000000
   35       11.794133   0.000000
   36       11.794133   0.000000
 
  0.5000000E+00  0.5000000E+00  0.1110223E-15  0.4629630E-02
    1     -196.142616   1.000000
    2     -196.142616   1.000000
    3     -141.778293   1.000000
    4     -141.778293   1.000000
    5     -113.615084   1.000000
    6     -113.615084   1.000000
    7     -113.614567   1.000000
    8     -113.614567   1.000000
    9      -43.544174   1.000000
   10      -43.544174   1.000000
   11      -43.538270   1.000000
   12      -43.538270   1.000000
   13      -39.132443   1.000000
   14      -39.132443   1.000000
   15      -39.130148   1.000000
   16      -39.130148   1.000000
   17      -39.125403   1.000000
   18      -39.125403   1.000000
   19      -16.370040   1.000000
   20      -16.370040   1.000000
   21       -4.551088   1.000000
   22       -4.551088   1.000000
   23       -1.958995   1.000000
   24       -1.958995   1.000000
   25       -1.141035   1.000000
   26       -1.141035   1.000000
   27        5.034587   0.000000
   28        5.034587   0.000000
   29        6.010654   0.000000
   30        6.010654   0.000000
   31       10.440847   0.000000
   32       10.440847   0.000000
   33       12.363138   0.000000
   34       12.363138   0.000000
   35       12.762519   0.000000
   36       12.762521   0.000000
 
 -0.3333333E+00  0.5000000E+00 -0.5551115E-16  0.4629630E-02
    1     -196.135333   1.000000
    2     -196.135333   1.000000
    3     -141.757878   1.000000
    4     -141.757878   1.000000
    5     -113.614804   1.000000
    6     -113.614804   1.000000
    7     -113.614483   1.000000
    8     -113.614483   1.000000
    9      -43.539226   1.000000
   10      -43.539226   1.000000
   11      -43.534462   1.000000
   12      -43.534462   1.000000
   13      -39.129141   1.000000
   14      -39.129141   1.000000
   15      -39.127766   1.000000
   16      -39.127766   1.000000
   17      -39.125234   1.000000
   18      -39.125234   1.000000
   19      -16.383881   1.000000
   20      -16.383881   1.000000
   21       -4.499589   1.000000
   22       -4.499589   1.000000
   23       -1.905016   1.000000
   24       -1.905016   1.000000
   25       -1.171257   1.000000
   26       -1.171257   1.000000
   27        5.550576   0.000000
   28        5.550576   0.000000
   29        6.631241   0.000000
   30        6.631241   0.000000
   31        9.092784   0.000000
   32        9.092784   0.000000
   33       10.725226   0.000000
   34       10.725226   0.000000
   35       11.794133   0.000000
   36       11.794133   0.000000
 
 -0.1666667E+00  0.5000000E+00 -0.2775558E-16  0.4629630E-02
    1     -196.133095   1.000000
    2     -196.133095   1.000000
    3     -141.754130   1.000000
    4     -141.754130   1.000000
    5     -113.614766   1.000000
    6     -113.614766   1.000000
    7     -113.614376   1.000000
    8     -113.614376   1.000000
    9      -43.538039   1.000000
   10      -43.538039   1.000000
   11      -43.532797   1.000000
   12      -43.532797   1.000000
   13      -39.128413   1.000000
   14      -39.128413   1.000000
   15      -39.127500   1.000000
   16      -39.127500   1.000000
   17      -39.123946   1.000000
   18      -39.123946   1.000000
   19      -16.411308   1.000000
   20      -16.411307   1.000000
   21       -4.468922   1.000000
   22       -4.468922   1.000000
   23       -1.855244   1.000000
   24       -1.855244   1.000000
   25       -0.868920   1.000000
   26       -0.868920   1.000000
   27        5.889446   0.000000
   28        5.889446   0.000000
   29        7.318893   0.000000