   1   1   0   0
  0.5953592E+02  0.4382932E-09  0.4382932E-09  0.4382932E-09  0.5000000E-15
  1.000000000000000E-004
  CAR 
 Og_FCC                                  
     15.96658374    -30.39953512  301      1.58340463      1.00000000
    -30.400  0.0000E+00  0.0000E+00
    -30.245  0.0000E+00  0.0000E+00
    -30.090  0.0000E+00  0.0000E+00
    -29.936  0.0000E+00  0.0000E+00
    -29.781  0.0000E+00  0.0000E+00
    -29.627  0.0000E+00  0.0000E+00
    -29.472  0.0000E+00  0.0000E+00
    -29.318  0.0000E+00  0.0000E+00
    -29.163  0.0000E+00  0.0000E+00
    -29.009  0.0000E+00  0.0000E+00
    -28.854  0.0000E+00  0.0000E+00
    -28.699 -0.4058E-27 -0.6272E-28
    -28.545 -0.2285E-09 -0.3531E-10
    -28.390 -0.3872E+00 -0.5985E-01
    -28.236  0.6667E+02  0.1024E+02
    -28.081 -0.1577E+01  0.1000E+02
    -27.927 -0.4079E-05  0.1000E+02
    -27.772  0.0000E+00  0.1000E+02
    -27.618  0.0000E+00  0.1000E+02
    -27.463  0.0000E+00  0.1000E+02
    -27.308  0.0000E+00  0.1000E+02
    -27.154  0.0000E+00  0.1000E+02
    -26.999  0.0000E+00  0.1000E+02
    -26.845  0.0000E+00  0.1000E+02
    -26.690  0.0000E+00  0.1000E+02
    -26.536  0.0000E+00  0.1000E+02
    -26.381  0.0000E+00  0.1000E+02
    -26.227  0.0000E+00  0.1000E+02
    -26.072  0.0000E+00  0.1000E+02
    -25.917  0.0000E+00  0.1000E+02
    -25.763  0.0000E+00  0.1000E+02
    -25.608  0.0000E+00  0.1000E+02
    -25.454  0.0000E+00  0.1000E+02
    -25.299  0.0000E+00  0.1000E+02
    -25.145  0.0000E+00  0.1000E+02
    -24.990  0.0000E+00  0.1000E+02
    -24.836  0.0000E+00  0.1000E+02
    -24.681  0.0000E+00  0.1000E+02
    -24.526  0.0000E+00  0.1000E+02
    -24.372  0.0000E+00  0.1000E+02
    -24.217  0.0000E+00  0.1000E+02
    -24.063  0.0000E+00  0.1000E+02
    -23.908  0.0000E+00  0.1000E+02
    -23.754  0.0000E+00  0.1000E+02
    -23.599  0.0000E+00  0.1000E+02
    -23.445  0.0000E+00  0.1000E+02
    -23.290  0.0000E+00  0.1000E+02
    -23.136  0.0000E+00  0.1000E+02
    -22.981  0.0000E+00  0.1000E+02
    -22.826  0.0000E+00  0.1000E+02
    -22.672  0.0000E+00  0.1000E+02
    -22.517  0.0000E+00  0.1000E+02
    -22.363  0.0000E+00  0.1000E+02
    -22.208  0.0000E+00  0.1000E+02
    -22.054  0.0000E+00  0.1000E+02
    -21.899  0.0000E+00  0.1000E+02
    -21.745 -0.1031E-34  0.1000E+02
    -21.590 -0.3579E-15  0.1000E+02
    -21.435 -0.8037E-04  0.1000E+02
    -21.281  0.2900E+00  0.1004E+02
    -21.126  0.1289E+02  0.1204E+02
    -20.972 -0.2371E+00  0.1200E+02
    -20.817 -0.1533E-07  0.1200E+02
    -20.663  0.0000E+00  0.1200E+02
    -20.508  0.0000E+00  0.1200E+02
    -20.354  0.0000E+00  0.1200E+02
    -20.199  0.0000E+00  0.1200E+02
    -20.044  0.0000E+00  0.1200E+02
    -19.890  0.0000E+00  0.1200E+02
    -19.735  0.0000E+00  0.1200E+02
    -19.581  0.0000E+00  0.1200E+02
    -19.426  0.0000E+00  0.1200E+02
    -19.272  0.0000E+00  0.1200E+02
    -19.117  0.0000E+00  0.1200E+02
    -18.963  0.0000E+00  0.1200E+02
    -18.808  0.0000E+00  0.1200E+02
    -18.653  0.0000E+00  0.1200E+02
    -18.499  0.0000E+00  0.1200E+02
    -18.344  0.0000E+00  0.1200E+02
    -18.190  0.0000E+00  0.1200E+02
    -18.035  0.0000E+00  0.1200E+02
    -17.881  0.0000E+00  0.1200E+02
    -17.726  0.0000E+00  0.1200E+02
    -17.572  0.0000E+00  0.1200E+02
    -17.417  0.0000E+00  0.1200E+02
    -17.262  0.0000E+00  0.1200E+02
    -17.108  0.0000E+00  0.1200E+02
    -16.953  0.0000E+00  0.1200E+02
    -16.799  0.0000E+00  0.1200E+02
    -16.644  0.0000E+00  0.1200E+02
    -16.490  0.0000E+00  0.1200E+02
    -16.335  0.0000E+00  0.1200E+02
    -16.181  0.0000E+00  0.1200E+02
    -16.026  0.0000E+00  0.1200E+02
    -15.871  0.0000E+00  0.1200E+02
    -15.717  0.0000E+00  0.1200E+02
    -15.562  0.0000E+00  0.1200E+02
    -15.408  0.0000E+00  0.1200E+02
    -15.253  0.0000E+00  0.1200E+02
    -15.099  0.0000E+00  0.1200E+02
    -14.944  0.0000E+00  0.1200E+02
    -14.790  0.0000E+00  0.1200E+02
    -14.635  0.0000E+00  0.1200E+02
    -14.481  0.0000E+00  0.1200E+02
    -14.326  0.0000E+00  0.1200E+02
    -14.171  0.0000E+00  0.1200E+02
    -14.017  0.0000E+00  0.1200E+02
    -13.862  0.0000E+00  0.1200E+02
    -13.708  0.0000E+00  0.1200E+02
    -13.553  0.0000E+00  0.1200E+02
    -13.399  0.0000E+00  0.1200E+02
    -13.244  0.0000E+00  0.1200E+02
    -13.090  0.0000E+00  0.1200E+02
    -12.935  0.0000E+00  0.1200E+02
    -12.780  0.0000E+00  0.1200E+02
    -12.626  0.0000E+00  0.1200E+02
    -12.471  0.0000E+00  0.1200E+02
    -12.317  0.0000E+00  0.1200E+02
    -12.162  0.0000E+00  0.1200E+02
    -12.008  0.0000E+00  0.1200E+02
    -11.853  0.0000E+00  0.1200E+02
    -11.699  0.0000E+00  0.1200E+02
    -11.544  0.0000E+00  0.1200E+02
    -11.389  0.0000E+00  0.1200E+02
    -11.235  0.0000E+00  0.1200E+02
    -11.080  0.0000E+00  0.1200E+02
    -10.926  0.0000E+00  0.1200E+02
    -10.771  0.0000E+00  0.1200E+02
    -10.617  0.0000E+00  0.1200E+02
    -10.462  0.0000E+00  0.1200E+02
    -10.308  0.0000E+00  0.1200E+02
    -10.153  0.0000E+00  0.1200E+02
     -9.998  0.0000E+00  0.1200E+02
     -9.844  0.0000E+00  0.1200E+02
     -9.689  0.0000E+00  0.1200E+02
     -9.535  0.0000E+00  0.1200E+02
     -9.380  0.0000E+00  0.1200E+02
     -9.226  0.0000E+00  0.1200E+02
     -9.071  0.0000E+00  0.1200E+02
     -8.917  0.0000E+00  0.1200E+02
     -8.762  0.0000E+00  0.1200E+02
     -8.607  0.0000E+00  0.1200E+02
     -8.453  0.0000E+00  0.1200E+02
     -8.298  0.0000E+00  0.1200E+02
     -8.144  0.0000E+00  0.1200E+02
     -7.989  0.0000E+00  0.1200E+02
     -7.835  0.0000E+00  0.1200E+02
     -7.680  0.0000E+00  0.1200E+02
     -7.526  0.0000E+00  0.1200E+02
     -7.371  0.0000E+00  0.1200E+02
     -7.216  0.0000E+00  0.1200E+02
     -7.062  0.0000E+00  0.1200E+02
     -6.907  0.0000E+00  0.1200E+02
     -6.753  0.0000E+00  0.1200E+02
     -6.598  0.0000E+00  0.1200E+02
     -6.444  0.0000E+00  0.1200E+02
     -6.289  0.0000E+00  0.1200E+02
     -6.135  0.0000E+00  0.1200E+02
     -5.980  0.0000E+00  0.1200E+02
     -5.825  0.0000E+00  0.1200E+02
     -5.671  0.0000E+00  0.1200E+02
     -5.516  0.0000E+00  0.1200E+02
     -5.362  0.0000E+00  0.1200E+02
     -5.207  0.0000E+00  0.1200E+02
     -5.053  0.0000E+00  0.1200E+02
     -4.898  0.0000E+00  0.1200E+02
     -4.744  0.0000E+00  0.1200E+02
     -4.589  0.0000E+00  0.1200E+02
     -4.435  0.0000E+00  0.1200E+02
     -4.280  0.0000E+00  0.1200E+02
     -4.125  0.0000E+00  0.1200E+02
     -3.971  0.0000E+00  0.1200E+02
     -3.816  0.0000E+00  0.1200E+02
     -3.662  0.0000E+00  0.1200E+02
     -3.507  0.0000E+00  0.1200E+02
     -3.353  0.0000E+00  0.1200E+02
     -3.198  0.0000E+00  0.1200E+02
     -3.044  0.0000E+00  0.1200E+02
     -2.889  0.0000E+00  0.1200E+02
     -2.734  0.0000E+00  0.1200E+02
     -2.580  0.0000E+00  0.1200E+02
     -2.425  0.0000E+00  0.1200E+02
     -2.271  0.0000E+00  0.1200E+02
     -2.116  0.0000E+00  0.1200E+02
     -1.962  0.0000E+00  0.1200E+02
     -1.807 -0.1173E-41  0.1200E+02
     -1.653 -0.1018E-19  0.1200E+02
     -1.498 -0.3238E-06  0.1200E+02
     -1.343  0.4251E-02  0.1200E+02
     -1.189  0.5863E+00  0.1209E+02
     -1.034  0.1876E+01  0.1238E+02
     -0.880  0.2977E+01  0.1284E+02
     -0.725  0.3909E+01  0.1345E+02
     -0.571  0.1414E+01  0.1366E+02
     -0.416  0.7976E+00  0.1379E+02
     -0.262  0.7928E+00  0.1391E+02
     -0.107  0.1626E+01  0.1416E+02
      0.048  0.8761E+00  0.1430E+02
      0.202  0.1993E+01  0.1460E+02
      0.357  0.1037E+01  0.1477E+02
      0.511  0.3823E+01  0.1536E+02
      0.666  0.2066E+01  0.1568E+02
      0.820  0.2625E+01  0.1608E+02
      0.975  0.4502E+01  0.1678E+02
      1.129  0.3013E+01  0.1724E+02
      1.284  0.2713E+01  0.1766E+02
      1.439  0.1507E+01  0.1789E+02
      1.593  0.6885E+00  0.1800E+02
      1.748 -0.6088E-02  0.1800E+02
      1.902 -0.2446E-06  0.1800E+02
      2.057  0.0000E+00  0.1800E+02
      2.211  0.0000E+00  0.1800E+02
      2.366  0.0000E+00  0.1800E+02
      2.520  0.0000E+00  0.1800E+02
      2.675  0.0000E+00  0.1800E+02
      2.830  0.0000E+00  0.1800E+02
      2.984  0.0000E+00  0.1800E+02
      3.139 -0.1470E-43  0.1800E+02
      3.293 -0.2653E-21  0.1800E+02
      3.448 -0.1774E-07  0.1800E+02
      3.602  0.1246E-02  0.1800E+02
      3.757  0.1653E-01  0.1800E+02
      3.911 -0.2362E-04  0.1800E+02
      4.066 -0.3504E-21  0.1800E+02
      4.221 -0.5425E-07  0.1800E+02
      4.375  0.3182E-02  0.1800E+02
      4.530  0.1391E+00  0.1802E+02
      4.684  0.6145E-01  0.1803E+02
      4.839  0.4474E-01  0.1804E+02
      4.993 -0.3385E-05  0.1804E+02
      5.148 -0.1718E-02  0.1804E+02
      5.302  0.2216E+00  0.1808E+02
      5.457 -0.1577E-02  0.1807E+02
      5.611  0.1255E+00  0.1809E+02
      5.766  0.4400E+00  0.1816E+02
      5.921 -0.6380E-02  0.1816E+02
      6.075  0.2090E+00  0.1819E+02
      6.230  0.4776E+00  0.1827E+02
      6.384  0.3899E+00  0.1833E+02
      6.539  0.4548E+00  0.1840E+02
      6.693  0.1738E+01  0.1867E+02
      6.848  0.5292E+00  0.1875E+02
      7.002  0.9170E+00  0.1889E+02
      7.157  0.4039E+00  0.1895E+02
      7.312  0.1890E+01  0.1924E+02
      7.466  0.1934E+01  0.1954E+02
      7.621  0.1278E+01  0.1974E+02
      7.775  0.7309E-01  0.1975E+02
      7.930  0.9006E+00  0.1989E+02
      8.084  0.3931E+00  0.1995E+02
      8.239  0.1130E+01  0.2013E+02
      8.393  0.4571E+00  0.2020E+02
      8.548  0.4403E+00  0.2027E+02
      8.703  0.7550E+00  0.2038E+02
      8.857  0.1069E+01  0.2055E+02
      9.012  0.7199E+00  0.2066E+02
      9.166  0.4335E+01  0.2133E+02
      9.321  0.1019E+01  0.2149E+02
      9.475  0.9233E+00  0.2163E+02
      9.630  0.2660E+01  0.2204E+02
      9.784  0.3713E+01  0.2261E+02
      9.939  0.5736E+00  0.2270E+02
     10.094  0.1466E+00  0.2273E+02
     10.248  0.4306E+00  0.2279E+02
     10.403  0.3250E+00  0.2284E+02
     10.557  0.9741E+00  0.2299E+02
     10.712  0.1145E+01  0.2317E+02
     10.866  0.2858E+01  0.2361E+02
     11.021  0.3024E+01  0.2408E+02
     11.175  0.2194E+01  0.2442E+02
     11.330  0.3032E+01  0.2489E+02
     11.485  0.1258E+01  0.2508E+02
     11.639  0.4050E+00  0.2514E+02
     11.794  0.8591E+00  0.2528E+02
     11.948  0.6476E+00  0.2538E+02
     12.103  0.7484E+00  0.2549E+02
     12.257 -0.1409E-01  0.2549E+02
     12.412  0.3019E+00  0.2554E+02
     12.566  0.6410E+00  0.2564E+02
     12.721  0.8653E+00  0.2577E+02
     12.876  0.1409E+00  0.2579E+02
     13.030  0.8759E+00  0.2593E+02
     13.185  0.3703E+00  0.2598E+02
     13.339 -0.7746E-04  0.2598E+02
     13.494 -0.1441E-23  0.2598E+02
     13.648 -0.2301E-08  0.2598E+02
     13.803 -0.3586E-02  0.2598E+02
     13.957  0.1110E+00  0.2600E+02
     14.112 -0.9458E-03  0.2600E+02
     14.266  0.0000E+00  0.2600E+02
     14.421  0.0000E+00  0.2600E+02
     14.576  0.0000E+00  0.2600E+02
     14.730  0.0000E+00  0.2600E+02
     14.885  0.0000E+00  0.2600E+02
     15.039  0.0000E+00  0.2600E+02
     15.194  0.0000E+00  0.2600E+02
     15.348  0.0000E+00  0.2600E+02
     15.503  0.0000E+00  0.2600E+02
     15.657  0.0000E+00  0.2600E+02
     15.812  0.0000E+00  0.2600E+02
     15.967  0.0000E+00  0.2600E+02
