    1    1    1    1
  0.5953592E+02  0.4382932E-09  0.4382932E-09  0.4382932E-09  0.5000000E-15
  1.000000000000000E-004
  CAR 
 Og_FCC                                  
     18     35     13
 
  0.0000000E+00  0.0000000E+00  0.0000000E+00  0.1371742E-02
    1      -28.289453   1.000000
    2      -28.289453   1.000000
    3      -28.289453   1.000000
    4      -28.286181   1.000000
    5      -28.286181   1.000000
    6      -21.303812   1.000000
    7        1.573004   0.671877
    8        1.573004   0.671877
    9        1.573004   0.671876
   10        3.633406   0.000000
   11       10.742657   0.000000
   12       10.742658   0.000000
   13       10.742700   0.000000
 
  0.1111111E+00  0.7953140E-17  0.0000000E+00  0.1097394E-01
    1      -28.289233   1.000000
    2      -28.289014   1.000000
    3      -28.289014   1.000000
    4      -28.286072   1.000000
    5      -28.286072   1.000000
    6      -21.293818   1.000000
    7        0.876134   1.000000
    8        1.525008   1.034921
    9        1.525008   1.034921
   10        4.412799   0.000000
   11        9.937914   0.000000
   12       10.871345   0.000000
   13       10.871349   0.000000
 
  0.2222222E+00 -0.1184930E-16 -0.1387779E-16  0.1097394E-01
    1      -28.288616   1.000000
    2      -28.288470   1.000000
    3      -28.288470   1.000000
    4      -28.285201   1.000000
    5      -28.285200   1.000000
    6      -21.268342   1.000000
    7       -0.137589   1.000000
    8        1.407823   1.000004
    9        1.407823   1.000004
   10        5.492328   0.000000
   11        9.769068   0.000000
   12       10.895561   0.000000
   13       10.895577   0.000000
 
  0.3333333E+00  0.5855389E-16 -0.1387779E-16  0.1097394E-01
    1      -28.288559   1.000000
    2      -28.288559   1.000000
    3      -28.287927   1.000000
    4      -28.283505   1.000000
    5      -28.283505   1.000000
    6      -21.239128   1.000000
    7       -0.910116   1.000000
    8        1.281380   1.000000
    9        1.281380   1.000000
   10        5.997428   0.000000
   11       10.553304   0.000000
   12       10.553417   0.000000
   13       10.616408   0.000000
 
  0.4444444E+00 -0.2369859E-16 -0.2775558E-16  0.1097394E-01
    1      -28.288776   1.000000
    2      -28.288776   1.000000
    3      -28.287475   1.000000
    4      -28.282232   1.000000
    5      -28.282232   1.000000
    6      -21.219873   1.000000
    7       -1.318188   1.000000
    8        1.202332   1.000000
    9        1.202332   1.000000
   10        6.079587   0.000000
   11       10.312470   0.000000
   12       10.312470   0.000000
   13       10.683380   0.000000
 
  0.1111111E+00  0.1111111E+00 -0.1387779E-16  0.8230453E-02
    1      -28.289770   1.000000
    2      -28.288495   1.000000
    3      -28.288495   1.000000
    4      -28.286458   1.000000
    5      -28.285764   1.000000
    6      -21.290516   1.000000
    7        0.837025   1.000000
    8        1.419393   1.000018
    9        1.419393   1.000018
   10        4.679412   0.000000
   11        9.618908   0.000000
   12       11.065797   0.000000
   13       11.079633   0.000000
 
  0.2222222E+00  0.1111111E+00 -0.1387779E-16  0.3292181E-01
    1      -28.289653   1.000000
    2      -28.287705   1.000000
    3      -28.287665   1.000000
    4      -28.286253   1.000000
    5      -28.284939   1.000000
    6      -21.270200   1.000000
    7        0.078053   1.000000
    8        1.263927   1.000000
    9        1.305848   1.000000
   10        5.662463   0.000000
   11        9.255700   0.000000
   12       10.433752   0.000000
   13       11.307266   0.000000
 
  0.3333333E+00  0.1111111E+00 -0.2775558E-16  0.3292181E-01
    1      -28.289096   1.000000
    2      -28.287617   1.000000
    3      -28.287612   1.000000
    4      -28.284805   1.000000
    5      -28.283315   1.000000
    6      -21.242210   1.000000
    7       -0.676895   1.000000
    8        1.132432   1.000000
    9        1.133603   1.000000
   10        6.388342   0.000000
   11        9.713732   0.000000
   12        9.761438   0.000000
   13       11.093604   0.000000
 
  0.4444444E+00  0.1111111E+00 -0.2775558E-16  0.3292181E-01
    1      -28.288896   1.000000
    2      -28.287885   1.000000
    3      -28.287200   1.000000
    4      -28.283290   1.000000
    5      -28.282129   1.000000
    6      -21.219572   1.000000
    7       -1.154430   1.000000
    8        0.943088   1.000000
    9        1.082747   1.000000
   10        6.585516   0.000000
   11        9.389950   0.000000
   12       10.734599   0.000000
   13       11.052298   0.000000
 
 -0.4444444E+00  0.1111111E+00  0.2775558E-16  0.3292181E-01
    1      -28.288801   1.000000
    2      -28.288039   1.000000
    3      -28.287020   1.000000
    4      -28.282458   1.000000
    5      -28.282257   1.000000
    6      -21.213138   1.000000
    7       -1.274360   1.000000
    8        0.825306   1.000000
    9        1.130602   1.000000
   10        6.611662   0.000000
   11        9.332894   0.000000
   12       10.540579   0.000000
   13       11.837755   0.000000
 
 -0.3333333E+00  0.1111111E+00  0.5551115E-16  0.3292181E-01
    1      -28.288539   1.000000
    2      -28.287941   1.000000
    3      -28.287456   1.000000
    4      -28.283684   1.000000
    5      -28.282659   1.000000
    6      -21.226002   1.000000
    7       -1.024174   1.000000
    8        0.832249   1.000000
    9        1.258898   1.000000
   10        6.572499   0.000000
   11        9.592385   0.000000
   12       10.593040   0.000000
   13       10.784460   0.000000
 
 -0.2222222E+00  0.1111111E+00  0.1387779E-16  0.3292181E-01
    1      -28.288429   1.000000
    2      -28.288109   1.000000
    3      -28.287792   1.000000
    4      -28.285587   1.000000
    5      -28.283831   1.000000
    6      -21.251933   1.000000
    7       -0.450830   1.000000
    8        0.978278   1.000000
    9        1.414445   1.000010
   10        6.196939   0.000000
   11        9.656170   0.000000
   12       10.144882   0.000000
   13       10.900794   0.000000
 
 -0.1111111E+00  0.1111111E+00  0.1535084E-16  0.1646091E-01
    1      -28.289067   1.000000
    2      -28.288431   1.000000
    3      -28.288277   1.000000
    4      -28.286301   1.000000
    5      -28.285252   1.000000
    6      -21.278654   1.000000
    7        0.298844   1.000000
    8        1.247916   1.000000
    9        1.522867   1.035427
   10        5.247686   0.000000
   11        9.544345   0.000000
   12       10.810037   0.000000
   13       11.020688   0.000000
 
  0.2222222E+00  0.2222222E+00 -0.2775558E-16  0.8230453E-02
    1      -28.290543   1.000000
    2      -28.287168   1.000000
    3      -28.285997   1.000000
    4      -28.285997   1.000000
    5      -28.284669   1.000000
    6      -21.256628   1.000000
    7       -0.116611   1.000000
    8        1.064302   1.000000
    9        1.064302   1.000000
   10        6.304333   0.000000
   11        8.653977   0.000000
   12        9.962415   0.000000
   13       11.890329   0.000000
 
  0.3333333E+00  0.2222222E+00 -0.2775558E-16  0.3292181E-01
    1      -28.290457   1.000000
    2      -28.287533   1.000000
    3      -28.285541   1.000000
    4      -28.284563   1.000000
    5      -28.283245   1.000000
    6      -21.233884   1.000000
    7       -0.579604   1.000000
    8        0.831323   1.000000
    9        0.904094   1.000000
   10        6.891725   0.000000
   11        8.565827   0.000000
   12        9.646196   0.000000
   13       12.047604   0.000000
 
  0.4444444E+00  0.2222222E+00 -0.2775558E-16  0.3292181E-01
    1      -28.289753   1.000000
    2      -28.287162   1.000000
    3      -28.285795   1.000000
    4      -28.283704   1.000000
    5      -28.282000   1.000000
    6      -21.212444   1.000000
    7       -0.928631   1.000000
    8        0.488698   1.000000
    9        0.846951   1.000000
   10        7.176452   0.000000
   11        9.134295   0.000000
   12        9.593029   0.000000
   13       11.700773   0.000000
 
 -0.4444444E+00  0.2222222E+00  0.4163336E-16  0.3292181E-01
    1      -28.289245   1.000000
    2      -28.286057   1.000000
    3      -28.286046   1.000000
    4      -28.283611   1.000000
    5      -28.282162   1.000000
    6      -21.202572   1.000000
    7       -1.033816   1.000000
    8        0.181830   1.000000
    9        0.913470   1.000000
   10        7.345093   0.000000
   11        9.076777   0.000000
   12       10.911395   0.000000
   13       11.352873   0.000000
 
 -0.3333333E+00  0.2222222E+00  0.2081668E-16  0.3292181E-01
    1      -28.288797   1.000000
    2      -28.286130   1.000000
    3      -28.286098   1.000000
    4      -28.283702   1.000000
    5      -28.283246   1.000000
    6      -21.208934   1.000000
    7       -0.920136   1.000000
    8        0.103408   1.000000
    9        1.080053   1.000000
   10        7.512250   0.000000
   11        9.069531   0.000000
   12       10.751783   0.000000
   13       11.168030   0.000000
 
 -0.2222222E+00  0.2222222E+00  0.1676212E-16  0.1646091E-01
    1      -28.288365   1.000000
    2      -28.287345   1.000000
    3      -28.285972   1.000000
    4      -28.285885   1.000000
    5      -28.283015   1.000000
    6      -21.228477   1.000000
    7       -0.710882   1.000000
    8        0.401843   1.000000
    9        1.279401   1.000000
   10        7.202237   0.000000
   11        9.376447   0.000000
   12        9.721982   0.000000
   13       11.113180   0.000000
 
  0.3333333E+00  0.3333333E+00 -0.8326673E-16  0.8230453E-02
    1      -28.291414   1.000000
    2      -28.287993   1.000000
    3      -28.283431   1.000000
    4      -28.283142   1.000000
    5      -28.283142   1.000000
    6      -21.217843   1.000000
    7       -0.774499   1.000000
    8        0.706361   1.000000
    9        0.706361   1.000000
   10        6.753687   0.000000
   11        8.007066   0.000000
   12       10.537756   0.000000
   13       12.942197   0.000000
 
  0.4444444E+00  0.3333333E+00  0.0000000E+00  0.3292181E-01
    1      -28.291168   1.000000
    2      -28.288080   1.000000
    3      -28.283591   1.000000
    4      -28.282346   1.000000
    5      -28.281815   1.000000
    6      -21.201740   1.000000
    7       -0.951767   1.000000
    8        0.417390   1.000000
    9        0.618937   1.000000
   10        6.775611   0.000000
   11        8.112707   0.000000
   12       10.963811   0.000000
   13       12.959113   0.000000
 
 -0.4444444E+00  0.3333333E+00  0.6938894E-17  0.3292181E-01
    1      -28.290185   1.000000
    2      -28.287128   1.000000
    3      -28.283899   1.000000
    4      -28.282739   1.000000
    5      -28.281866   1.000000
    6      -21.193032   1.000000
    7       -0.886814   1.000000
    8       -0.086703   1.000000
    9        0.672029   1.000000
   10        7.027833   0.000000
   11        8.979527   0.000000
   12       10.885178   0.000000
   13       12.584113   0.000000
 
 -0.3333333E+00  0.3333333E+00  0.1682255E-16  0.1646091E-01
    1      -28.289388   1.000000
    2      -28.285132   1.000000
    3      -28.284450   1.000000
    4      -28.284198   1.000000
    5      -28.283090   1.000000
    6      -21.195947   1.000000
    7       -0.596929   1.000000
    8       -0.511861   1.000000
    9        0.848026   1.000000
   10        7.397842   0.000000
   11        9.754070   0.000000
   12       11.149574   0.000000
   13       11.264472   0.000000
 
  0.4444444E+00  0.4444444E+00 -0.5551115E-16  0.8230453E-02
    1      -28.291984   1.000000
    2      -28.288552   1.000000
    3      -28.282633   1.000000
    4      -28.281299   1.000000
    5      -28.281299   1.000000
    6      -21.192443   1.000000
    7       -1.097904   1.000000
    8        0.493122   1.000000
    9        0.493122   1.000000
   10        6.374692   0.000000
   11        7.683160   0.000000
   12       12.697045   0.000000
   13       13.859033   0.000000
 
 -0.4444444E+00  0.4444444E+00  0.3352423E-16  0.1646091E-01
    1      -28.291451   1.000000
    2      -28.288307   1.000000
    3      -28.282783   1.000000
    4      -28.281461   1.000000
    5      -28.281295   1.000000
    6      -21.189008   1.000000
    7       -1.064674   1.000000
    8        0.254601   1.000000
    9        0.512934   1.000000
   10        6.548258   0.000000
   11        7.958695   0.000000
   12       12.862860   0.000000
   13       13.041426   0.000000
 
  0.3333333E+00  0.2222222E+00  0.1111111E+00  0.3292181E-01
    1      -28.289499   1.000000
    2      -28.287646   1.000000
    3      -28.286305   1.000000
    4      -28.286109   1.000000
    5      -28.283761   1.000000
    6      -21.248664   1.000000
    7       -0.377453   1.000000
    8        0.857792   1.000000
    9        1.244150   1.000000
   10        6.554797   0.000000
   11        9.039753   0.000000
   12        9.719531   0.000000
   13       11.750468   0.000000
 
  0.4444444E+00  0.2222222E+00  0.1111111E+00  0.6584362E-01
    1      -28.288750   1.000000
    2      -28.287759   1.000000
    3      -28.286326   1.000000
    4      -28.284447   1.000000
    5      -28.282679   1.000000
    6      -21.223943   1.000000
    7       -0.815065   1.000000
    8        0.534099   1.000000
    9        1.096287   1.000000
   10        7.222764   0.000000
   11        9.131351   0.000000
   12        9.578873   0.000000
   13       11.412764   0.000000
 
 -0.4444444E+00  0.2222222E+00  0.1111111E+00  0.6584362E-01
    1      -28.288601   1.000000
    2      -28.287533   1.000000
    3      -28.285939   1.000000
    4      -28.283511   1.000000
    5      -28.282260   1.000000
    6      -21.207740   1.000000
    7       -1.073874   1.000000
    8        0.380061   1.000000
    9        0.967323   1.000000
   10        7.394984   0.000000
   11        8.801404   0.000000
   12       10.938920   0.000000
   13       11.245163   0.000000
 
  0.4444444E+00  0.3333333E+00  0.1111111E+00  0.3292181E-01
    1      -28.290219   1.000000
    2      -28.287734   1.000000
    3      -28.285017   1.000000
    4      -28.283198   1.000000
    5      -28.282493   1.000000
    6      -21.214366   1.000000
    7       -0.805113   1.000000
    8        0.471444   1.000000
    9        0.778402   1.000000
   10        7.226743   0.000000
   11        8.527566   0.000000
   12        9.682665   0.000000
   13       12.668408   0.000000
 
 -0.4444444E+00  0.3333333E+00  0.1111111E+00  0.6584362E-01
    1      -28.289250   1.000000
    2      -28.287278   1.000000
    3      -28.285099   1.000000
    4      -28.283084   1.000000
    5      -28.281962   1.000000
    6      -21.199356   1.000000
    7       -0.875795   1.000000
    8        0.083421   1.000000
    9        0.660134   1.000000
   10        7.561090   0.000000
   11        9.115657   0.000000
   12        9.620814   0.000000
   13       12.420602   0.000000
 
 -0.3333333E+00  0.3333333E+00  0.1111111E+00  0.6584362E-01
    1      -28.288657   1.000000
    2      -28.286318   1.000000
    3      -28.284733   1.000000
    4      -28.284388   1.000000
    5      -28.282114   1.000000
    6      -21.195893   1.000000
    7       -0.786064   1.000000
    8       -0.216404   1.000000
    9        0.712653   1.000000
   10        7.875752   0.000000
   11        9.016582   0.000000
   12       10.758254   0.000000
   13       11.255806   0.000000
 
 -0.2222222E+00  0.3333333E+00  0.1111111E+00  0.3292181E-01
    1      -28.288233   1.000000
    2      -28.287229   1.000000
    3      -28.285538   1.000000
    4      -28.283310   1.000000
    5      -28.283210   1.000000
    6      -21.205647   1.000000
    7       -0.796070   1.000000
    8       -0.035741   1.000000
    9        0.902399   1.000000
   10        8.105702   0.000000
   11        8.698611   0.000000
   12        9.820408   0.000000
   13       11.962248   0.000000
 
 -0.4444444E+00  0.4444444E+00  0.1111111E+00  0.3292181E-01
    1      -28.290702   1.000000
    2      -28.288054   1.000000
    3      -28.283403   1.000000
    4      -28.282216   1.000000
    5      -28.281295   1.000000
    6      -21.191934   1.000000
    7       -0.975634   1.000000
    8        0.243861   1.000000
    9        0.440302   1.000000
   10        6.910878   0.000000
   11        8.247345   0.000000
   12       11.245578   0.000000
   13       13.033655   0.000000
 
 -0.3333333E+00  0.4444444E+00  0.1111111E+00  0.3292181E-01
    1      -28.289447   1.000000
    2      -28.287136   1.000000
    3      -28.283789   1.000000
    4      -28.283651   1.000000
    5      -28.281329   1.000000
    6      -21.189641   1.000000
    7       -0.783648   1.000000
    8       -0.189369   1.000000
    9        0.482551   1.000000
   10        7.386918   0.000000
   11        9.085123   0.000000
   12       10.718401   0.000000
   13       11.565202   0.000000
 
 -0.3333333E+00  0.4444444E+00  0.2222222E+00  0.3292181E-01
    1      -28.287452   1.000000
    2      -28.287383   1.000000
    3      -28.285488   1.000000
    4      -28.283835   1.000000
    5      -28.281305   1.000000
    6      -21.190738   1.000000
    7       -0.642010   1.000000
    8       -0.288649   1.000000
    9        0.401160   1.000000
   10        8.234991   0.000000
   11        9.262823   0.000000
   12        9.695293   0.000000
   13       11.082464   0.000000
