   1   1   0   0
  0.5789729E+02  0.4342346E-09  0.4342346E-09  0.4342346E-09  0.1000000E-15
  1.000000000000000E-004
  CAR 
 Og_FCC                                  
     39.45044728    -45.18460452  301      3.30422724      1.00000000
    -45.185  0.0000E+00  0.0000E+00
    -44.902  0.0000E+00  0.0000E+00
    -44.620  0.0000E+00  0.0000E+00
    -44.338  0.0000E+00  0.0000E+00
    -44.056  0.0000E+00  0.0000E+00
    -43.774  0.0000E+00  0.0000E+00
    -43.492  0.0000E+00  0.0000E+00
    -43.210  0.0000E+00  0.0000E+00
    -42.928  0.0000E+00  0.0000E+00
    -42.646  0.0000E+00  0.0000E+00
    -42.363  0.0000E+00  0.0000E+00
    -42.081  0.0000E+00  0.0000E+00
    -41.799  0.0000E+00  0.0000E+00
    -41.517  0.0000E+00  0.0000E+00
    -41.235  0.0000E+00  0.4000E+01
    -40.953  0.0000E+00  0.4000E+01
    -40.671  0.0000E+00  0.4000E+01
    -40.389  0.0000E+00  0.4000E+01
    -40.107  0.0000E+00  0.4000E+01
    -39.824  0.0000E+00  0.4000E+01
    -39.542  0.0000E+00  0.4000E+01
    -39.260  0.0000E+00  0.4000E+01
    -38.978  0.0000E+00  0.4000E+01
    -38.696  0.0000E+00  0.4000E+01
    -38.414  0.0000E+00  0.4000E+01
    -38.132  0.0000E+00  0.4000E+01
    -37.850  0.0000E+00  0.4000E+01
    -37.567  0.0000E+00  0.4000E+01
    -37.285  0.0000E+00  0.4000E+01
    -37.003  0.0000E+00  0.4000E+01
    -36.721  0.0000E+00  0.4000E+01
    -36.439  0.0000E+00  0.4000E+01
    -36.157  0.0000E+00  0.4000E+01
    -35.875  0.0000E+00  0.4000E+01
    -35.593  0.0000E+00  0.4000E+01
    -35.311  0.0000E+00  0.4000E+01
    -35.028  0.0000E+00  0.4000E+01
    -34.746  0.0000E+00  0.4000E+01
    -34.464  0.0000E+00  0.4000E+01
    -34.182  0.0000E+00  0.4000E+01
    -33.900  0.0000E+00  0.4000E+01
    -33.618  0.0000E+00  0.4000E+01
    -33.336  0.0000E+00  0.1000E+02
    -33.054  0.0000E+00  0.1000E+02
    -32.771  0.0000E+00  0.1000E+02
    -32.489  0.0000E+00  0.1000E+02
    -32.207  0.0000E+00  0.1000E+02
    -31.925  0.0000E+00  0.1000E+02
    -31.643  0.0000E+00  0.1000E+02
    -31.361  0.0000E+00  0.1000E+02
    -31.079  0.0000E+00  0.1000E+02
    -30.797  0.0000E+00  0.1000E+02
    -30.515  0.0000E+00  0.1000E+02
    -30.232  0.0000E+00  0.1000E+02
    -29.950  0.0000E+00  0.1000E+02
    -29.668  0.0000E+00  0.1000E+02
    -29.386  0.0000E+00  0.1000E+02
    -29.104  0.0000E+00  0.1000E+02
    -28.822  0.0000E+00  0.1000E+02
    -28.540  0.0000E+00  0.1000E+02
    -28.258  0.0000E+00  0.1000E+02
    -27.975  0.0000E+00  0.1000E+02
    -27.693  0.0000E+00  0.1000E+02
    -27.411  0.0000E+00  0.1000E+02
    -27.129  0.0000E+00  0.1000E+02
    -26.847  0.0000E+00  0.1000E+02
    -26.565  0.0000E+00  0.1000E+02
    -26.283  0.0000E+00  0.1000E+02
    -26.001  0.0000E+00  0.1000E+02
    -25.719  0.0000E+00  0.1000E+02
    -25.436  0.3319E+00  0.1047E+02
    -25.154  0.0000E+00  0.1200E+02
    -24.872  0.0000E+00  0.1200E+02
    -24.590  0.0000E+00  0.1200E+02
    -24.308  0.0000E+00  0.1200E+02
    -24.026  0.0000E+00  0.1200E+02
    -23.744  0.0000E+00  0.1200E+02
    -23.462  0.0000E+00  0.1200E+02
    -23.179  0.0000E+00  0.1200E+02
    -22.897  0.0000E+00  0.1200E+02
    -22.615  0.0000E+00  0.1200E+02
    -22.333  0.0000E+00  0.1200E+02
    -22.051  0.0000E+00  0.1200E+02
    -21.769  0.0000E+00  0.1200E+02
    -21.487  0.0000E+00  0.1200E+02
    -21.205  0.0000E+00  0.1200E+02
    -20.923  0.0000E+00  0.1200E+02
    -20.640  0.0000E+00  0.1200E+02
    -20.358  0.0000E+00  0.1200E+02
    -20.076  0.0000E+00  0.1200E+02
    -19.794  0.0000E+00  0.1200E+02
    -19.512  0.0000E+00  0.1200E+02
    -19.230  0.0000E+00  0.1200E+02
    -18.948  0.0000E+00  0.1200E+02
    -18.666  0.0000E+00  0.1200E+02
    -18.384  0.0000E+00  0.1200E+02
    -18.101  0.0000E+00  0.1200E+02
    -17.819  0.0000E+00  0.1200E+02
    -17.537  0.0000E+00  0.1200E+02
    -17.255  0.0000E+00  0.1200E+02
    -16.973  0.0000E+00  0.1200E+02
    -16.691  0.0000E+00  0.1200E+02
    -16.409  0.0000E+00  0.1200E+02
    -16.127  0.0000E+00  0.1200E+02
    -15.844  0.0000E+00  0.1200E+02
    -15.562  0.0000E+00  0.1200E+02
    -15.280  0.0000E+00  0.1200E+02
    -14.998  0.0000E+00  0.1200E+02
    -14.716  0.0000E+00  0.1200E+02
    -14.434  0.0000E+00  0.1200E+02
    -14.152  0.0000E+00  0.1200E+02
    -13.870  0.0000E+00  0.1200E+02
    -13.588  0.0000E+00  0.1200E+02
    -13.305  0.0000E+00  0.1200E+02
    -13.023  0.0000E+00  0.1200E+02
    -12.741  0.0000E+00  0.1200E+02
    -12.459  0.0000E+00  0.1200E+02
    -12.177  0.0000E+00  0.1200E+02
    -11.895  0.0000E+00  0.1200E+02
    -11.613  0.0000E+00  0.1200E+02
    -11.331  0.0000E+00  0.1200E+02
    -11.048  0.0000E+00  0.1200E+02
    -10.766  0.0000E+00  0.1200E+02
    -10.484  0.0000E+00  0.1200E+02
    -10.202  0.0000E+00  0.1200E+02
     -9.920  0.0000E+00  0.1372E+02
     -9.638  0.0000E+00  0.1400E+02
     -9.356  0.0000E+00  0.1400E+02
     -9.074  0.0000E+00  0.1400E+02
     -8.792  0.0000E+00  0.1400E+02
     -8.509  0.0000E+00  0.1400E+02
     -8.227  0.0000E+00  0.1400E+02
     -7.945  0.0000E+00  0.1400E+02
     -7.663  0.0000E+00  0.1400E+02
     -7.381  0.0000E+00  0.1400E+02
     -7.099  0.0000E+00  0.1400E+02
     -6.817  0.0000E+00  0.1400E+02
     -6.535  0.0000E+00  0.1400E+02
     -6.252  0.0000E+00  0.1400E+02
     -5.970  0.0000E+00  0.1400E+02
     -5.688  0.0000E+00  0.1400E+02
     -5.406  0.0000E+00  0.1400E+02
     -5.124  0.0000E+00  0.1400E+02
     -4.842  0.0000E+00  0.1400E+02
     -4.560  0.0000E+00  0.1400E+02
     -4.278  0.0000E+00  0.1400E+02
     -3.996  0.0000E+00  0.1400E+02
     -3.713  0.0000E+00  0.1400E+02
     -3.431  0.0000E+00  0.1400E+02
     -3.149  0.0000E+00  0.1400E+02
     -2.867  0.0000E+00  0.1400E+02
     -2.585  0.0000E+00  0.1400E+02
     -2.303  0.0000E+00  0.1400E+02
     -2.021  0.0000E+00  0.1400E+02
     -1.739  0.0000E+00  0.1400E+02
     -1.456  0.0000E+00  0.1400E+02
     -1.174  0.0000E+00  0.1400E+02
     -0.892  0.0000E+00  0.1400E+02
     -0.610  0.1662E+00  0.1417E+02
     -0.328  0.0000E+00  0.1544E+02
     -0.046  0.0000E+00  0.1553E+02
      0.236  0.0000E+00  0.1553E+02
      0.518  0.0000E+00  0.1616E+02
      0.800  0.0000E+00  0.1616E+02
      1.083  0.0000E+00  0.1616E+02
      1.365  0.0000E+00  0.1700E+02
      1.647  0.0000E+00  0.1738E+02
      1.929  0.0000E+00  0.1747E+02
      2.211  0.0000E+00  0.1756E+02
      2.493  0.0000E+00  0.1769E+02
      2.775  0.0000E+00  0.1794E+02
      3.057  0.0000E+00  0.1797E+02
      3.339  0.0000E+00  0.1803E+02
      3.622  0.0000E+00  0.1803E+02
      3.904  0.0000E+00  0.1803E+02
      4.186  0.0000E+00  0.1803E+02
      4.468  0.0000E+00  0.1803E+02
      4.750  0.0000E+00  0.1803E+02
      5.032  0.0000E+00  0.1803E+02
      5.314  0.0000E+00  0.1803E+02
      5.596  0.0000E+00  0.1803E+02
      5.879  0.0000E+00  0.1803E+02
      6.161  0.2215E+00  0.1828E+02
      6.443  0.0000E+00  0.1828E+02
      6.725  0.0000E+00  0.1850E+02
      7.007  0.0000E+00  0.1850E+02
      7.289  0.0000E+00  0.1869E+02
      7.571  0.0000E+00  0.1869E+02
      7.853  0.0000E+00  0.1944E+02
      8.135  0.0000E+00  0.2000E+02
      8.418  0.0000E+00  0.2009E+02
      8.700  0.0000E+00  0.2009E+02
      8.982  0.0000E+00  0.2009E+02
      9.264  0.0000E+00  0.2103E+02
      9.546  0.0000E+00  0.2141E+02
      9.828  0.0000E+00  0.2141E+02
     10.110  0.0000E+00  0.2141E+02
     10.392  0.0000E+00  0.2159E+02
     10.675  0.0000E+00  0.2222E+02
     10.957  0.6809E+00  0.2241E+02
     11.239  0.0000E+00  0.2347E+02
     11.521  0.0000E+00  0.2391E+02
     11.803  0.0000E+00  0.2431E+02
     12.085  0.0000E+00  0.2459E+02
     12.367  0.0000E+00  0.2500E+02
     12.649  0.0000E+00  0.2525E+02
     12.931  0.0000E+00  0.2619E+02
     13.214  0.0000E+00  0.2631E+02
     13.496  0.2795E-14  0.2631E+02
     13.778  0.0000E+00  0.2694E+02
     14.060  0.0000E+00  0.2738E+02
     14.342  0.0000E+00  0.2738E+02
     14.624  0.0000E+00  0.2816E+02
     14.906  0.0000E+00  0.2816E+02
     15.188  0.1124E+00  0.2844E+02
     15.471  0.0000E+00  0.2884E+02
     15.753  0.0000E+00  0.2884E+02
     16.035  0.0000E+00  0.2884E+02
     16.317  0.0000E+00  0.2978E+02
     16.599  0.1218E+01  0.3037E+02
     16.881  0.0000E+00  0.3131E+02
     17.163  0.0000E+00  0.3266E+02
     17.445  0.0000E+00  0.3297E+02
     17.727  0.1394E-01  0.3297E+02
     18.010  0.0000E+00  0.3344E+02
     18.292  0.0000E+00  0.3431E+02
     18.574  0.0000E+00  0.3444E+02
     18.856  0.0000E+00  0.3453E+02
     19.138  0.0000E+00  0.3478E+02
     19.420  0.3323E+00  0.3512E+02
     19.702  0.0000E+00  0.3588E+02
     19.984  0.0000E+00  0.3634E+02
     20.267  0.0000E+00  0.3709E+02
     20.549  0.0000E+00  0.3747E+02
     20.831  0.0000E+00  0.3747E+02
     21.113  0.0000E+00  0.3916E+02
     21.395  0.0000E+00  0.3959E+02
     21.677  0.1121E+00  0.3972E+02
     21.959  0.0000E+00  0.4109E+02
     22.241  0.0000E+00  0.4128E+02
     22.523  0.0000E+00  0.4203E+02
     22.806  0.0000E+00  0.4278E+02
     23.088  0.0000E+00  0.4278E+02
     23.370  0.0000E+00  0.4409E+02
     23.652  0.1772E+01  0.4587E+02
     23.934  0.0000E+00  0.4606E+02
     24.216  0.0000E+00  0.4606E+02
     24.498  0.0000E+00  0.4728E+02
     24.780  0.0000E+00  0.4738E+02
     25.062  0.0000E+00  0.4772E+02
     25.345  0.0000E+00  0.4872E+02
     25.627  0.0000E+00  0.4909E+02
     25.909  0.0000E+00  0.4978E+02
     26.191  0.0000E+00  0.4978E+02
     26.473  0.0000E+00  0.4997E+02
     26.755  0.0000E+00  0.5028E+02
     27.037  0.0000E+00  0.5103E+02
     27.319  0.0000E+00  0.5203E+02
     27.602  0.2270E-02  0.5238E+02
     27.884  0.0000E+00  0.5275E+02
     28.166  0.0000E+00  0.5312E+02
     28.448  0.0000E+00  0.5312E+02
     28.730  0.0000E+00  0.5425E+02
     29.012  0.0000E+00  0.5528E+02
     29.294  0.0000E+00  0.5622E+02
     29.576  0.4829E+00  0.5651E+02
     29.858  0.0000E+00  0.5672E+02
     30.141  0.2030E-01  0.5810E+02
     30.423  0.0000E+00  0.5903E+02
     30.705  0.0000E+00  0.5950E+02
     30.987  0.1808E-05  0.5975E+02
     31.269  0.0000E+00  0.6112E+02
     31.551  0.0000E+00  0.6112E+02
     31.833  0.0000E+00  0.6112E+02
     32.115  0.0000E+00  0.6238E+02
     32.398  0.0000E+00  0.6253E+02
     32.680  0.0000E+00  0.6262E+02
     32.962  0.0000E+00  0.6278E+02
     33.244  0.0000E+00  0.6303E+02
     33.526  0.0000E+00  0.6303E+02
     33.808  0.0000E+00  0.6322E+02
     34.090  0.0000E+00  0.6381E+02
     34.372  0.0000E+00  0.6381E+02
     34.654  0.0000E+00  0.6381E+02
     34.937  0.0000E+00  0.6381E+02
     35.219  0.0000E+00  0.6381E+02
     35.501  0.0000E+00  0.6381E+02
     35.783  0.0000E+00  0.6400E+02
     36.065  0.0000E+00  0.6400E+02
     36.347  0.0000E+00  0.6400E+02
     36.629  0.0000E+00  0.6400E+02
     36.911  0.0000E+00  0.6400E+02
     37.194  0.0000E+00  0.6400E+02
     37.476  0.0000E+00  0.6400E+02
     37.758  0.0000E+00  0.6400E+02
     38.040  0.0000E+00  0.6400E+02
     38.322  0.0000E+00  0.6400E+02
     38.604  0.0000E+00  0.6400E+02
     38.886  0.0000E+00  0.6400E+02
     39.168  0.0000E+00  0.6400E+02
     39.450  0.0000E+00  0.6400E+02
