    1    1    1    1
  0.5789729E+02  0.4342346E-09  0.4342346E-09  0.4342346E-09  0.1000000E-15
  1.000000000000000E-004
  CAR 
 Og_FCC                                  
     18     64     64
 
  0.0000000E+00  0.0000000E+00  0.0000000E+00  0.1562500E-01
    1      -41.331634   1.000000
    2      -41.331686   1.000000
    3      -41.331340   1.000000
    4      -41.331408   1.000000
    5      -33.546788   1.000000
    6      -33.545369   1.000000
    7      -33.545087   1.000000
    8      -33.543132   1.000000
    9      -33.540831   1.000000
   10      -33.542610   1.000000
   11      -25.530279   1.000000
   12      -25.521083   1.000000
   13       -9.725453   1.000000
   14       -9.721472   1.000000
   15        3.275839   1.000000
   16        3.277217   1.000000
   17        2.963649   1.000000
   18        2.963568   1.000000
   19        3.320080   0.000000
   20        3.320030   0.000000
   21       11.647473   0.000000
   22       11.647998   0.000000
   23       11.649620   0.000000
   24       11.650151   0.000000
   25       12.227046   0.000000
   26       12.229105   0.000000
   27       11.892115   0.000000
   28       11.897353   0.000000
   29       14.544496   0.000000
   30       14.551524   0.000000
   31       15.002323   0.000000
   32       15.002831   0.000000
   33       15.004848   0.000000
   34       15.005365   0.000000
   35       15.284709   0.000000
   36       15.289350   0.000000
   37       15.292711   0.000000
   38       15.297365   0.000000
   39       16.902861   0.000000
   40       16.903465   0.000000
   41       24.812473   0.000000
   42       24.811927   0.000000
   43       24.814113   0.000000
   44       24.817907   0.000000
   45       24.815282   0.000000
   46       24.824695   0.000000
   47       25.335612   0.000000
   48       25.333671   0.000000
   49       31.076173   0.000000
   50       31.076608   0.000000
   51       31.086160   0.000000
   52       31.086578   0.000000
   53       32.161928   0.000000
   54       32.166376   0.000000
   55       32.592058   0.000000
   56       32.602831   0.000000
   57       32.435484   0.000000
   58       32.438815   0.000000
   59       32.441089   0.000000
   60       32.444476   0.000000
   61       32.924441   0.000000
   62       32.926528   0.000000
   63       33.225358   0.000000
   64       33.226235   0.000000
 
  0.2500000E+00  0.2350390E-17  0.8326673E-16  0.1562500E-01
    1      -41.320768   1.000000
    2      -41.320603   1.000000
    3      -41.320086   1.000000
    4      -41.319797   1.000000
    5      -33.539350   1.000000
    6      -33.538668   1.000000
    7      -33.536658   1.000000
    8      -33.534906   1.000000
    9      -33.532599   1.000000
   10      -33.530697   1.000000
   11      -25.470571   1.000000
   12      -25.458403   1.000000
   13       -9.891513   1.000000
   14       -9.887687   1.000000
   15        0.337220   1.000000
   16        0.383031   1.000000
   17        2.626509   1.000000
   18        2.701624   1.000000
   19        6.145057   0.000000
   20        6.156371   0.000000
   21       10.568346   0.000000
   22       10.578091   0.000000
   23       11.716292   0.000000
   24       11.716390   0.000000
   25       11.941580   0.000000
   26       11.941978   0.000000
   27       12.588245   0.000000
   28       12.589988   0.000000
   29       13.731229   0.000000
   30       13.733328   0.000000
   31       13.964585   0.000000
   32       13.970365   0.000000
   33       16.797177   0.000000
   34       16.805408   0.000000
   35       19.012619   0.000000
   36       19.017004   0.000000
   37       19.365266   0.000000
   38       19.373757   0.000000
   39       21.753728   0.000000
   40       21.758418   0.000000
   41       22.545072   0.000000
   42       22.556398   0.000000
   43       21.227191   0.000000
   44       21.228035   0.000000
   45       25.027336   0.000000
   46       25.015890   0.000000
   47       22.762731   0.000000
   48       22.755576   0.000000
   49       27.282632   0.000000
   50       27.284384   0.000000
   51       29.168450   0.000000
   52       29.178041   0.000000
   53       29.990494   0.000000
   54       30.001312   0.000000
   55       30.953841   0.000000
   56       30.956415   0.000000
   57       32.026827   0.000000
   58       32.031831   0.000000
   59       32.068364   0.000000
   60       32.089920   0.000000
   61       34.021451   0.000000
   62       34.018040   0.000000
   63       34.061671   0.000000
   64       34.072879   0.000000
 
  0.5000000E+00  0.4700780E-17  0.1665335E-15  0.1562500E-01
    1      -41.337557   1.000000
    2      -41.337230   1.000000
    3      -41.328364   1.000000
    4      -41.328195   1.000000
    5      -33.547773   1.000000
    6      -33.543853   1.000000
    7      -33.544229   1.000000
    8      -33.541493   1.000000
    9      -33.540502   1.000000
   10      -33.538366   1.000000
   11      -25.409105   1.000000
   12      -25.396707   1.000000
   13      -10.059537   1.000000
   14      -10.055802   1.000000
   15       -0.663330   1.000000
   16       -0.633107   1.000000
   17        2.324445   1.000000
   18        2.370703   1.000000
   19        6.453370   0.000000
   20        6.454425   0.000000
   21       11.035149   0.000000
   22       11.037378   0.000000
   23       11.263074   0.000000
   24       11.262998   0.000000
   25       11.254547   0.000000
   26       11.256674   0.000000
   27       13.058930   0.000000
   28       13.065164   0.000000
   29       16.451615   0.000000
   30       16.448200   0.000000
   31       16.711217   0.000000
   32       16.718105   0.000000
   33       17.202857   0.000000
   34       17.209025   0.000000
   35       18.257974   0.000000
   36       18.260157   0.000000
   37       18.399043   0.000000
   38       18.409455   0.000000
   39       21.718651   0.000000
   40       21.729479   0.000000
   41       22.714286   0.000000
   42       22.725031   0.000000
   43       22.717977   0.000000
   44       22.724643   0.000000
   45       25.277322   0.000000
   46       25.281701   0.000000
   47       26.512429   0.000000
   48       26.517455   0.000000
   49       25.818368   0.000000
   50       25.826586   0.000000
   51       29.336082   0.000000
   52       29.341740   0.000000
   53       27.452317   0.000000
   54       27.452958   0.000000
   55       27.543844   0.000000
   56       27.548332   0.000000
   57       29.101713   0.000000
   58       29.103005   0.000000
   59       32.151042   0.000000
   60       32.158021   0.000000
   61       32.852388   0.000000
   62       32.855043   0.000000
   63       33.218650   0.000000
   64       33.221805   0.000000
 
 -0.2500000E+00 -0.2350390E-17 -0.8326673E-16  0.1562500E-01
    1      -41.320756   1.000000
    2      -41.320604   1.000000
    3      -41.320075   1.000000
    4      -41.319783   1.000000
    5      -33.539350   1.000000
    6      -33.538675   1.000000
    7      -33.536648   1.000000
    8      -33.534891   1.000000
    9      -33.532593   1.000000
   10      -33.530690   1.000000
   11      -25.470565   1.000000
   12      -25.458408   1.000000
   13       -9.891510   1.000000
   14       -9.887684   1.000000
   15        0.337220   1.000000
   16        0.383031   1.000000
   17        2.626509   1.000000
   18        2.701625   1.000000
   19        6.145057   0.000000
   20        6.156371   0.000000
   21       10.568346   0.000000
   22       10.578092   0.000000
   23       11.716292   0.000000
   24       11.716390   0.000000
   25       11.941580   0.000000
   26       11.941978   0.000000
   27       12.588245   0.000000
   28       12.589987   0.000000
   29       13.731231   0.000000
   30       13.733330   0.000000
   31       13.964587   0.000000
   32       13.970367   0.000000
   33       16.797178   0.000000
   34       16.805409   0.000000
   35       19.012620   0.000000
   36       19.017005   0.000000
   37       19.365267   0.000000
   38       19.373758   0.000000
   39       21.753728   0.000000
   40       21.758418   0.000000
   41       22.545072   0.000000
   42       22.556397   0.000000
   43       21.227191   0.000000
   44       21.228035   0.000000
   45       25.027334   0.000000
   46       25.015893   0.000000
   47       22.762733   0.000000
   48       22.755577   0.000000
   49       27.282633   0.000000
   50       27.284386   0.000000
   51       29.168451   0.000000
   52       29.178042   0.000000
   53       29.990494   0.000000
   54       30.001313   0.000000
   55       30.953843   0.000000
   56       30.956416   0.000000
   57       32.026828   0.000000
   58       32.031832   0.000000
   59       32.068368   0.000000
   60       32.089924   0.000000
   61       34.021453   0.000000
   62       34.018042   0.000000
   63       34.061671   0.000000
   64       34.072879   0.000000
 
  0.7703720E-33  0.2500000E+00 -0.2775558E-16  0.1562500E-01
    1      -41.320726   1.000000
    2      -41.320709   1.000000
    3      -41.319836   1.000000
    4      -41.319999   1.000000
    5      -33.539769   1.000000
    6      -33.538711   1.000000
    7      -33.535625   1.000000
    8      -33.535180   1.000000
    9      -33.532723   1.000000
   10      -33.530895   1.000000
   11      -25.468901   1.000000
   12      -25.460069   1.000000
   13       -9.891617   1.000000
   14       -9.887583   1.000000
   15        0.356850   1.000000
   16        0.363029   1.000000
   17        2.659282   1.000000
   18        2.669102   1.000000
   19        6.150591   0.000000
   20        6.150886   0.000000
   21       10.573107   0.000000
   22       10.573330   0.000000
   23       11.716245   0.000000
   24       11.716364   0.000000
   25       11.940922   0.000000
   26       11.942590   0.000000
   27       12.587713   0.000000
   28       12.590483   0.000000
   29       13.732482   0.000000
   30       13.732076   0.000000
   31       13.967207   0.000000
   32       13.967772   0.000000
   33       16.800689   0.000000
   34       16.801945   0.000000
   35       19.010847   0.000000
   36       19.018746   0.000000
   37       19.369116   0.000000
   38       19.369924   0.000000
   39       21.756622   0.000000
   40       21.755765   0.000000
   41       22.550284   0.000000
   42       22.551109   0.000000
   43       21.227095   0.000000
   44       21.228172   0.000000
   45       25.031240   0.000000
   46       25.032987   0.000000
   47       22.751626   0.000000
   48       22.743163   0.000000
   49       27.283163   0.000000
   50       27.283625   0.000000
   51       29.172919   0.000000
   52       29.173659   0.000000
   53       29.995074   0.000000
   54       29.996806   0.000000
   55       30.953902   0.000000
   56       30.956377   0.000000
   57       32.025064   0.000000
   58       32.033505   0.000000
   59       32.078958   0.000000
   60       32.079430   0.000000
   61       34.022100   0.000000
   62       34.017082   0.000000
   63       34.067325   0.000000
   64       34.067379   0.000000
 
  0.2500000E+00  0.2500000E+00  0.2775558E-16  0.1562500E-01
    1      -41.325552   1.000000
    2      -41.325257   1.000000
    3      -41.321240   1.000000
    4      -41.320919   1.000000
    5      -33.543102   1.000000
    6      -33.538689   1.000000
    7      -33.537930   1.000000
    8      -33.536029   1.000000
    9      -33.534086   1.000000
   10      -33.532808   1.000000
   11      -25.449201   1.000000
   12      -25.440234   1.000000
   13       -9.938857   1.000000
   14       -9.934925   1.000000
   15        0.246218   1.000000
   16        0.287978   1.000000
   17        1.907774   1.000000
   18        1.971563   1.000000
   19        7.050001   0.000000
   20        7.051206   0.000000
   21        9.130099   0.000000
   22        9.133593   0.000000
   23       10.444961   0.000000
   24       10.452076   0.000000
   25       12.781587   0.000000
   26       12.787925   0.000000
   27       13.929926   0.000000
   28       13.936881   0.000000
   29       16.119739   0.000000
   30       16.128241   0.000000
   31       16.863296   0.000000
   32       16.869510   0.000000
   33       16.746927   0.000000
   34       16.765949   0.000000
   35       16.895025   0.000000
   36       16.908906   0.000000
   37       17.728979   0.000000
   38       17.734898   0.000000
   39       22.071978   0.000000
   40       22.080286   0.000000
   41       21.678272   0.000000
   42       21.678230   0.000000
   43       23.174341   0.000000
   44       23.178260   0.000000
   45       23.545966   0.000000
   46       23.546979   0.000000
   47       23.510713   0.000000
   48       23.513882   0.000000
   49       26.653192   0.000000
   50       26.659432   0.000000
   51       29.569896   0.000000
   52       29.574538   0.000000
   53       28.934304   0.000000
   54       28.932915   0.000000
   55       29.587731   0.000000
   56       29.594270   0.000000
   57       29.248705   0.000000
   58       29.261916   0.000000
   59       30.990723   0.000000
   60       30.999025   0.000000
   61       35.601876   0.000000
   62       35.603394   0.000000
   63       33.642022   0.000000
   64       33.636684   0.000000
 
  0.5000000E+00  0.2500000E+00  0.1110223E-15  0.1562500E-01
    1      -41.330180   1.000000
    2      -41.329951   1.000000
    3      -41.326168   1.000000
    4      -41.325985   1.000000
    5      -33.543837   1.000000
    6      -33.541738   1.000000
    7      -33.540479   1.000000
    8      -33.538338   1.000000
    9      -33.537886   1.000000
   10      -33.534258   1.000000
   11      -25.388830   1.000000
   12      -25.378014   1.000000
   13      -10.093994   1.000000
   14      -10.090151   1.000000
   15       -0.501139   1.000000
   16       -0.472704   1.000000
   17        1.149857   1.000000
   18        1.186125   1.000000
   19        7.611737   0.000000
   20        7.614490   0.000000
   21        9.214462   0.000000
   22        9.219819   0.000000
   23       10.971428   0.000000
   24       10.976953   0.000000
   25       12.749115   0.000000
   26       12.754124   0.000000
   27       14.549606   0.000000
   28       14.553597   0.000000
   29       16.275620   0.000000
   30       16.278077   0.000000
   31       16.899826   0.000000
   32       16.902791   0.000000
   33       18.271738   0.000000
   34       18.279896   0.000000
   35       19.470049   0.000000
   36       19.476209   0.000000
   37       20.959182   0.000000
   38       20.962513   0.000000
   39       21.081539   0.000000
   40       21.082604   0.000000
   41       21.715660   0.000000
   42       21.722452   0.000000
   43       23.220083   0.000000
   44       23.220998   0.000000
   45       23.643542   0.000000
   46       23.648614   0.000000
   47       24.414998   0.000000
   48       24.416774   0.000000
   49       25.252025   0.000000
   50       25.256615   0.000000
   51       26.855122   0.000000
   52       26.857698   0.000000
   53       27.305533   0.000000
   54       27.308659   0.000000
   55       28.743095   0.000000
   56       28.746270   0.000000
   57       28.604939   0.000000
   58       28.613481   0.000000
   59       30.142347   0.000000
   60       30.145238   0.000000
   61       31.025985   0.000000
   62       31.027883   0.000000
   63       32.030765   0.000000
   64       32.034478   0.000000
 
 -0.2500000E+00  0.2500000E+00 -0.7632356E-16  0.1562500E-01
    1      -41.323877   1.000000
    2      -41.323701   1.000000
    3      -41.317601   1.000000
    4      -41.317397   1.000000
    5      -33.538097   1.000000
    6      -33.536359   1.000000
    7      -33.535930   1.000000
    8      -33.534260   1.000000
    9      -33.533621   1.000000
   10      -33.530993   1.000000
   11      -25.409340   1.000000
   12      -25.398419   1.000000
   13      -10.045885   1.000000
   14      -10.041964   1.000000
   15       -0.367783   1.000000
   16       -0.343903   1.000000
   17        1.440394   1.000000
   18        1.471692   1.000000
   19        8.032580   0.000000
   20        8.037267   0.000000
   21        9.317746   0.000000
   22        9.319365   0.000000
   23       10.951834   0.000000
   24       10.958423   0.000000
   25       12.295564   0.000000
   26       12.303380   0.000000
   27       13.502503   0.000000
   28       13.505087   0.000000
   29       15.188821   0.000000
   30       15.193767   0.000000
   31       16.592522   0.000000
   32       16.595204   0.000000
   33       17.002628   0.000000
   34       17.005773   0.000000
   35       19.777719   0.000000
   36       19.796668   0.000000
   37       20.463918   0.000000
   38       20.466060   0.000000
   39       22.470551   0.000000
   40       22.476603   0.000000
   41       22.370200   0.000000
   42       22.368767   0.000000
   43       23.498591   0.000000
   44       23.504652   0.000000
   45       23.181285   0.000000
   46       23.180832   0.000000
   47       24.480313   0.000000
   48       24.480653   0.000000
   49       25.743764   0.000000
   50       25.746495   0.000000
   51       27.604951   0.000000
   52       27.608070   0.000000
   53       28.611281   0.000000
   54       28.618014   0.000000
   55       29.065664   0.000000
   56       29.067896   0.000000
   57       30.097647   0.000000
   58       30.095737   0.000000
   59       30.016166   0.000000
   60       30.018159   0.000000
   61       29.997695   0.000000
   62       30.000336   0.000000
   63       31.231286   0.000000
   64       31.237229   0.000000
 
  0.1540744E-32  0.5000000E+00 -0.5551115E-16  0.1562500E-01
    1      -41.337291   1.000000
    2      -41.337498   1.000000
    3      -41.328264   1.000000
    4      -41.328295   1.000000
    5      -33.547014   1.000000
    6      -33.545626   1.000000
    7      -33.542487   1.000000
    8      -33.541896   1.000000
    9      -33.540629   1.000000
   10      -33.538510   1.000000
   11      -25.407343   1.000000
   12      -25.398476   1.000000
   13      -10.059724   1.000000
   14      -10.055618   1.000000
   15       -0.650601   1.000000
   16       -0.646058   1.000000
   17        2.344626   1.000000
   18        2.350720   1.000000
   19        6.452856   0.000000
   20        6.454906   0.000000
   21       11.036136   0.000000
   22       11.036318   0.000000
   23       11.262009   0.000000
   24       11.264017   0.000000
   25       11.253416   0.000000
   26       11.257760   0.000000
   27       13.061613   0.000000
   28       13.062471   0.000000
   29       16.448867   0.000000
   30       16.450956   0.000000
   31       16.714287   0.000000
   32       16.715070   0.000000
   33       17.205570   0.000000
   34       17.206254   0.000000
   35       18.257527   0.000000
   36       18.260490   0.000000
   37       18.403804   0.000000
   38       18.404894   0.000000
   39       21.723045   0.000000
   40       21.725188   0.000000
   41       22.718935   0.000000
   42       22.719891   0.000000
   43       22.716848   0.000000
   44       22.726287   0.000000
   45       25.275784   0.000000
   46       25.283466   0.000000
   47       26.512276   0.000000
   48       26.517566   0.000000
   49       25.822108   0.000000
   50       25.822865   0.000000
   51       29.338257   0.000000
   52       29.339422   0.000000
   53       27.452302   0.000000
   54       27.452893   0.000000
   55       27.545870   0.000000
   56       27.546412   0.000000
   57       29.101761   0.000000
   58       29.102994   0.000000
   59       32.154173   0.000000
   60       32.154837   0.000000
   61       32.852327   0.000000
   62       32.855019   0.000000
   63       33.221783   0.000000
   64       33.218560   0.000000
 
  0.2500000E+00  0.5000000E+00  0.2775558E-16  0.1562500E-01
    1      -41.330102   1.000000
    2      -41.330056   1.000000
    3      -41.326134   1.000000
    4      -41.326011   1.000000
    5      -33.544698   1.000000
    6      -33.540697   1.000000
    7      -33.540395   1.000000
    8      -33.538578   1.000000
    9      -33.536537   1.000000
   10      -33.535620   1.000000
   11      -25.387972   1.000000
   12      -25.378884   1.000000
   13      -10.094076   1.000000
   14      -10.090069   1.000000
   15       -0.496742   1.000000
   16       -0.477248   1.000000
   17        1.155413   1.000000
   18        1.180700   1.000000
   19        7.612181   0.000000
   20        7.614022   0.000000
   21        9.217011   0.000000
   22        9.217231   0.000000
   23       10.974514   0.000000
   24       10.973855   0.000000
   25       12.750356   0.000000
   26       12.752832   0.000000
   27       14.552588   0.000000
   28       14.550617   0.000000
   29       16.275685   0.000000
   30       16.277942   0.000000
   31       16.899186   0.000000
   32       16.903488   0.000000
   33       18.273913   0.000000
   34       18.277731   0.000000
   35       19.469616   0.000000
   36       19.476681   0.000000
   37       20.956428   0.000000
   38       20.965432   0.000000
   39       21.077308   0.000000
   40       21.086956   0.000000
   41       21.719760   0.000000
   42       21.718234   0.000000
   43       23.217063   0.000000
   44       23.223940   0.000000
   45       23.643174   0.000000
   46       23.648972   0.000000
   47       24.415734   0.000000
   48       24.416041   0.000000
   49       25.251981   0.000000
   50       25.256680   0.000000
   51       26.855594   0.000000
   52       26.857185   0.000000
   53       27.305883   0.000000
   54       27.308248   0.000000
   55       28.741180   0.000000
   56       28.748176   0.000000
   57       28.606072   0.000000
   58       28.612333   0.000000
   59       30.143174   0.000000
   60       30.144462   0.000000
   61       31.025605   0.000000
   62       31.028284   0.000000
   63       32.030855   0.000000
   64       32.034408   0.000000
 
  0.5000000E+00  0.5000000E+00  0.5551115E-16  0.1562500E-01
    1      -41.336269   1.000000
    2      -41.335946   1.000000
    3      -41.325694   1.000000
    4      -41.325387   1.000000
    5      -33.547201   1.000000
    6      -33.543481   1.000000
    7      -33.542515   1.000000
    8      -33.539367   1.000000
    9      -33.537367   1.000000
   10      -33.534970   1.000000
   11      -25.367726   1.000000
   12      -25.358323   1.000000
   13      -10.139334   1.000000
   14      -10.135418   1.000000
   15       -0.616891   1.000000
   16       -0.587224   1.000000
   17        1.110553   1.000000
   18        1.150156   1.000000
   19        6.562172   0.000000
   20        6.564245   0.000000
   21        8.175621   0.000000
   22        8.179064   0.000000
   23       11.562752   0.000000
   24       11.566123   0.000000
   25       16.719522   0.000000
   26       16.728046   0.000000
   27       16.632202   0.000000
   28       16.646074   0.000000
   29       16.403950   0.000000
   30       16.409719   0.000000
   31       17.849788   0.000000
   32       17.852790   0.000000
   33       18.799799   0.000000
   34       18.811149   0.000000
   35       20.929536   0.000000
   36       20.936162   0.000000
   37       21.034829   0.000000
   38       21.045191   0.000000
   39       19.413745   0.000000
   40       19.415380   0.000000
   41       21.810186   0.000000
   42       21.815819   0.000000
   43       21.486698   0.000000
   44       21.499090   0.000000
   45       19.859677   0.000000
   46       19.864946   0.000000
   47       23.453427   0.000000
   48       23.460481   0.000000
   49       24.457375   0.000000
   50       24.465708   0.000000
   51       24.559001   0.000000
   52       24.567853   0.000000
   53       27.344082   0.000000
   54       27.353894   0.000000
   55       25.114928   0.000000
   56       25.117735   0.000000
   57       28.960768   0.000000
   58       28.969827   0.000000
   59       30.694985   0.000000
   60       30.695946   0.000000
   61       33.132743   0.000000
   62       33.137493   0.000000
   63       33.871649   0.000000
   64       33.875447   0.000000
 
 -0.2500000E+00  0.5000000E+00 -0.6938894E-16  0.1562500E-01
    1      -41.330082   1.000000
    2      -41.330050   1.000000
    3      -41.326113   1.000000
    4      -41.325991   1.000000
    5      -33.544692   1.000000
    6      -33.540696   1.000000
    7      -33.540371   1.000000
    8      -33.538573   1.000000
    9      -33.536542   1.000000
   10      -33.535606   1.000000
   11      -25.387962   1.000000
   12      -25.378878   1.000000
   13      -10.094073   1.000000
   14      -10.090068   1.000000
   15       -0.496743   1.000000
   16       -0.477249   1.000000
   17        1.155413   1.000000
   18        1.180700   1.000000
   19        7.612182   0.000000
   20        7.614023   0.000000
   21        9.217012   0.000000
   22        9.217232   0.000000
   23       10.974514   0.000000
   24       10.973855   0.000000
   25       12.750358   0.000000
   26       12.752835   0.000000
   27       14.552585   0.000000
   28       14.550615   0.000000
   29       16.275689   0.000000
   30       16.277945   0.000000
   31       16.899184   0.000000
   32       16.903486   0.000000
   33       18.273913   0.000000
   34       18.277731   0.000000
   35       19.469621   0.000000
   36       19.476687   0.000000
   37       20.956429   0.000000
   38       20.965433   0.000000
   39       21.077300   0.000000
   40       21.086948   0.000000
   41       21.719764   0.000000
   42       21.718237   0.000000
   43       23.217063   0.000000
   44       23.223940   0.000000
   45       23.643178   0.000000
   46       23.648975   0.000000
   47       24.415735   0.000000
   48       24.416041   0.000000
   49       25.251981   0.000000
   50       25.256679   0.000000
   51       26.855591   0.000000
   52       26.857183   0.000000
   53       27.305884   0.000000
   54       27.308249   0.000000
   55       28.741187   0.000000
   56       28.748183   0.000000
   57       28.606074   0.000000
   58       28.612336   0.000000
   59       30.143174   0.000000
   60       30.144461   0.000000
   61       31.025603   0.000000
   62       31.028283   0.000000
   63       32.030857   0.000000
   64       32.034410   0.000000
 
 -0.7703720E-33 -0.2500000E+00  0.2775558E-16  0.1562500E-01
    1      -41.320711   1.000000
    2      -41.320695   1.000000
    3      -41.319817   1.000000
    4      -41.319978   1.000000
    5      -33.539759   1.000000
    6      -33.538700   1.000000
    7      -33.535607   1.000000
    8      -33.535167   1.000000
    9      -33.532717   1.000000
   10      -33.530875   1.000000
   11      -25.468907   1.000000
   12      -25.460074   1.000000
   13       -9.891619   1.000000
   14       -9.887585   1.000000
   15        0.356850   1.000000
   16        0.363029   1.000000
   17        2.659281   1.000000
   18        2.669102   1.000000
   19        6.150591   0.000000
   20        6.150887   0.000000
   21       10.573108   0.000000
   22       10.573330   0.000000
   23       11.716245   0.000000
   24       11.716363   0.000000
   25       11.940922   0.000000
   26       11.942590   0.000000
   27       12.587714   0.000000
   28       12.590483   0.000000
   29       13.732482   0.000000
   30       13.732076   0.000000
   31       13.967210   0.000000
   32       13.967775   0.000000
   33       16.800690   0.000000
   34       16.801946   0.000000
   35       19.010849   0.000000
   36       19.018748   0.000000
   37       19.369116   0.000000
   38       19.369924   0.000000
   39       21.756622   0.000000
   40       21.755765   0.000000
   41       22.550283   0.000000
   42       22.551107   0.000000
   43       21.227097   0.000000
   44       21.228174   0.000000
   45       25.031247   0.000000
   46       25.032972   0.000000
   47       22.751635   0.000000
   48       22.743159   0.000000
   49       27.283164   0.000000
   50       27.283626   0.000000
   51       29.172920   0.000000
   52       29.173660   0.000000
   53       29.995074   0.000000
   54       29.996806   0.000000
   55       30.953903   0.000000
   56       30.956377   0.000000
   57       32.025066   0.000000
   58       32.033507   0.000000
   59       32.078962   0.000000
   60       32.079433   0.000000
   61       34.022103   0.000000
   62       34.017085   0.000000
   63       34.067326   0.000000
   64       34.067380   0.000000
 
  0.2500000E+00 -0.2500000E+00  0.7632356E-16  0.1562500E-01
    1      -41.323888   1.000000
    2      -41.323713   1.000000
    3      -41.317593   1.000000
    4      -41.317387   1.000000
    5      -33.538088   1.000000
    6      -33.536355   1.000000
    7      -33.535935   1.000000
    8      -33.534264   1.000000
    9      -33.533624   1.000000
   10      -33.530999   1.000000
   11      -25.409347   1.000000
   12      -25.398426   1.000000
   13      -10.045885   1.000000
   14      -10.041964   1.000000
   15       -0.367783   1.000000
   16       -0.343903   1.000000
   17        1.440394   1.000000
   18        1.471691   1.000000
   19        8.032580   0.000000
   20        8.037267   0.000000
   21        9.317745   0.000000
   22        9.319364   0.000000
   23       10.951835   0.000000
   24       10.958423   0.000000
   25       12.295564   0.000000
   26       12.303380   0.000000
   27       13.502503   0.000000
   28       13.505087   0.000000
   29       15.188822   0.000000
   30       15.193767   0.000000
   31       16.592522   0.000000
   32       16.595204   0.000000
   33       17.002628   0.000000
   34       17.005774   0.000000
   35       19.777718   0.000000
   36       19.796667   0.000000
   37       20.463919   0.000000
   38       20.466061   0.000000
   39       22.470551   0.000000
   40       22.476603   0.000000
   41       22.370204   0.000000
   42       22.368771   0.000000
   43       23.498592   0.000000
   44       23.504652   0.000000