   1   1   0   0
  0.5789729E+02  0.4342346E-09  0.4342346E-09  0.4342346E-09  0.1000000E-15
  1.000000000000000E-004
  CAR 
 Og_FCC                                  
    133.90960847    -48.88360797  301      2.45082031      1.00000000
    -48.884  0.0000E+00  0.0000E+00
    -48.274  0.0000E+00  0.0000E+00
    -47.665  0.0000E+00  0.0000E+00
    -47.056  0.0000E+00  0.0000E+00
    -46.446  0.0000E+00  0.0000E+00
    -45.837  0.0000E+00  0.0000E+00
    -45.228  0.0000E+00  0.0000E+00
    -44.618  0.0000E+00  0.0000E+00
    -44.009  0.0000E+00  0.0000E+00
    -43.400  0.0000E+00  0.0000E+00
    -42.791  0.0000E+00  0.0000E+00
    -42.181  0.0000E+00  0.0000E+00
    -41.572  0.0000E+00  0.0000E+00
    -40.963  0.0000E+00  0.0000E+00
    -40.353  0.0000E+00  0.4000E+01
    -39.744  0.0000E+00  0.4000E+01
    -39.135  0.0000E+00  0.4000E+01
    -38.525  0.0000E+00  0.4000E+01
    -37.916  0.0000E+00  0.4000E+01
    -37.307  0.0000E+00  0.4000E+01
    -36.697  0.0000E+00  0.4000E+01
    -36.088  0.0000E+00  0.4000E+01
    -35.479  0.0000E+00  0.4000E+01
    -34.869  0.0000E+00  0.4000E+01
    -34.260  0.0000E+00  0.4000E+01
    -33.651  0.0000E+00  0.4000E+01
    -33.042  0.0000E+00  0.1000E+02
    -32.432  0.0000E+00  0.1000E+02
    -31.823  0.0000E+00  0.1000E+02
    -31.214  0.0000E+00  0.1000E+02
    -30.604  0.0000E+00  0.1000E+02
    -29.995  0.0000E+00  0.1000E+02
    -29.386  0.0000E+00  0.1000E+02
    -28.776  0.0000E+00  0.1000E+02
    -28.167  0.0000E+00  0.1000E+02
    -27.558  0.0000E+00  0.1000E+02
    -26.948  0.0000E+00  0.1000E+02
    -26.339  0.0000E+00  0.1000E+02
    -25.730  0.0000E+00  0.1000E+02
    -25.120  0.0000E+00  0.1200E+02
    -24.511  0.0000E+00  0.1200E+02
    -23.902  0.0000E+00  0.1200E+02
    -23.293  0.0000E+00  0.1200E+02
    -22.683  0.0000E+00  0.1200E+02
    -22.074  0.0000E+00  0.1200E+02
    -21.465  0.0000E+00  0.1200E+02
    -20.855  0.0000E+00  0.1200E+02
    -20.246  0.0000E+00  0.1200E+02
    -19.637  0.0000E+00  0.1200E+02
    -19.027  0.0000E+00  0.1200E+02
    -18.418  0.0000E+00  0.1200E+02
    -17.809  0.0000E+00  0.1200E+02
    -17.199  0.0000E+00  0.1200E+02
    -16.590  0.0000E+00  0.1200E+02
    -15.981  0.0000E+00  0.1200E+02
    -15.372  0.0000E+00  0.1200E+02
    -14.762  0.0000E+00  0.1200E+02
    -14.153  0.0000E+00  0.1200E+02
    -13.544  0.0000E+00  0.1200E+02
    -12.934  0.0000E+00  0.1200E+02
    -12.325  0.0000E+00  0.1200E+02
    -11.716  0.0000E+00  0.1200E+02
    -11.106  0.0000E+00  0.1200E+02
    -10.497  0.1510E+00  0.1384E+02
     -9.888  0.0000E+00  0.1400E+02
     -9.278  0.0000E+00  0.1400E+02
     -8.669  0.0000E+00  0.1400E+02
     -8.060  0.0000E+00  0.1400E+02
     -7.450  0.0000E+00  0.1400E+02
     -6.841  0.0000E+00  0.1400E+02
     -6.232  0.0000E+00  0.1400E+02
     -5.623  0.0000E+00  0.1400E+02
     -5.013  0.0000E+00  0.1400E+02
     -4.404  0.0000E+00  0.1400E+02
     -3.795  0.0000E+00  0.1400E+02
     -3.185  0.0000E+00  0.1400E+02
     -2.576  0.0000E+00  0.1400E+02
     -1.967  0.0000E+00  0.1400E+02
     -1.357  0.0000E+00  0.1400E+02
     -0.748  0.0000E+00  0.1553E+02
     -0.139  0.0000E+00  0.1597E+02
      0.471  0.0000E+00  0.1691E+02
      1.080  0.0000E+00  0.1741E+02
      1.689  0.0000E+00  0.1791E+02
      2.298  0.0000E+00  0.1800E+02
      2.908  0.0000E+00  0.1800E+02
      3.517  0.0000E+00  0.1801E+02
      4.126  0.0000E+00  0.1801E+02
      4.736  0.0000E+00  0.1801E+02
      5.345  0.0000E+00  0.1808E+02
      5.954  0.0000E+00  0.1814E+02
      6.564  0.0000E+00  0.1839E+02
      7.173  0.0000E+00  0.1911E+02
      7.782  0.1218E-05  0.1978E+02
      8.392  0.0000E+00  0.2008E+02
      9.001  0.0000E+00  0.2075E+02
      9.610  0.0000E+00  0.2169E+02
     10.220  0.0000E+00  0.2238E+02
     10.829  0.0000E+00  0.2342E+02
     11.438  0.2007E-11  0.2393E+02
     12.047  0.0000E+00  0.2544E+02
     12.657  0.0000E+00  0.2598E+02
     13.266  0.0000E+00  0.2659E+02
     13.875  0.0000E+00  0.2748E+02
     14.485  0.0000E+00  0.2896E+02
     15.094  0.3647E+00  0.2997E+02
     15.703  0.0000E+00  0.3051E+02
     16.313  0.0000E+00  0.3138E+02
     16.922  0.0000E+00  0.3238E+02
     17.531  0.2612E-01  0.3350E+02
     18.141  0.0000E+00  0.3601E+02
     18.750  0.0000E+00  0.3931E+02
     19.359  0.0000E+00  0.4161E+02
     19.969  0.0000E+00  0.4360E+02
     20.578  0.0000E+00  0.4544E+02
     21.187  0.0000E+00  0.4641E+02
     21.796  0.6769E-09  0.4657E+02
     22.406  0.0000E+00  0.4762E+02
     23.015  0.0000E+00  0.4835E+02
     23.624  0.0000E+00  0.4933E+02
     24.234  0.0000E+00  0.5106E+02
     24.843  0.1824E+00  0.5308E+02
     25.452  0.0000E+00  0.5495E+02
     26.062  0.0000E+00  0.5651E+02
     26.671  0.0000E+00  0.5756E+02
     27.280  0.0000E+00  0.5849E+02
     27.890  0.0000E+00  0.6007E+02
     28.499  0.0000E+00  0.6117E+02
     29.108  0.0000E+00  0.6224E+02
     29.717  0.0000E+00  0.6329E+02
     30.327  0.0000E+00  0.6481E+02
     30.936  0.0000E+00  0.6593E+02
     31.545  0.0000E+00  0.6712E+02
     32.155  0.0000E+00  0.6974E+02
     32.764  0.0000E+00  0.7146E+02
     33.373  0.0000E+00  0.7286E+02
     33.983  0.0000E+00  0.7427E+02
     34.592  0.1824E+00  0.7544E+02
     35.201  0.4098E-01  0.7732E+02
     35.811  0.0000E+00  0.7913E+02
     36.420  0.1758E+00  0.8068E+02
     37.029  0.0000E+00  0.8263E+02
     37.639  0.4559E-01  0.8377E+02
     38.248  0.0000E+00  0.8527E+02
     38.857  0.0000E+00  0.8619E+02
     39.466  0.0000E+00  0.8787E+02
     40.076  0.0000E+00  0.8955E+02
     40.685  0.1910E-03  0.9104E+02
     41.294  0.0000E+00  0.9270E+02
     41.904  0.2097E-03  0.9436E+02
     42.513  0.7294E+00  0.9623E+02
     43.122  0.0000E+00  0.9781E+02
     43.732  0.0000E+00  0.9929E+02
     44.341  0.0000E+00  0.1008E+03
     44.950  0.1149E+00  0.1026E+03
     45.560  0.0000E+00  0.1040E+03
     46.169  0.0000E+00  0.1058E+03
     46.778  0.9318E-11  0.1079E+03
     47.387  0.0000E+00  0.1098E+03
     47.997  0.0000E+00  0.1114E+03
     48.606  0.0000E+00  0.1129E+03
     49.215  0.3625E+00  0.1146E+03
     49.825  0.0000E+00  0.1162E+03
     50.434  0.3233E+00  0.1186E+03
     51.043  0.1508E+00  0.1199E+03
     51.653  0.0000E+00  0.1222E+03
     52.262  0.0000E+00  0.1247E+03
     52.871  0.1055E-07  0.1265E+03
     53.481  0.0000E+00  0.1276E+03
     54.090  0.0000E+00  0.1294E+03
     54.699  0.0000E+00  0.1318E+03
     55.309  0.0000E+00  0.1333E+03
     55.918  0.0000E+00  0.1353E+03
     56.527  0.0000E+00  0.1375E+03
     57.136  0.0000E+00  0.1387E+03
     57.746  0.0000E+00  0.1404E+03
     58.355  0.0000E+00  0.1430E+03
     58.964  0.0000E+00  0.1442E+03
     59.574  0.0000E+00  0.1463E+03
     60.183  0.1777E+00  0.1490E+03
     60.792  0.0000E+00  0.1503E+03
     61.402  0.5718E-01  0.1523E+03
     62.011  0.1175E-09  0.1541E+03
     62.620  0.0000E+00  0.1558E+03
     63.230  0.0000E+00  0.1577E+03
     63.839  0.0000E+00  0.1599E+03
     64.448  0.1824E+00  0.1625E+03
     65.057  0.1318E-09  0.1646E+03
     65.667  0.3647E+00  0.1663E+03
     66.276  0.0000E+00  0.1690E+03
     66.885  0.0000E+00  0.1706E+03
     67.495  0.0000E+00  0.1726E+03
     68.104  0.3647E+00  0.1746E+03
     68.713  0.0000E+00  0.1768E+03
     69.323  0.3647E+00  0.1787E+03
     69.932  0.0000E+00  0.1806E+03
     70.541  0.2279E-01  0.1826E+03
     71.151  0.3509E+00  0.1849E+03
     71.760  0.0000E+00  0.1871E+03
     72.369  0.0000E+00  0.1889E+03
     72.979  0.0000E+00  0.1917E+03
     73.588  0.0000E+00  0.1939E+03
     74.197  0.4365E-01  0.1957E+03
     74.806  0.0000E+00  0.1978E+03
     75.416  0.0000E+00  0.1998E+03
     76.025  0.0000E+00  0.2022E+03
     76.634  0.0000E+00  0.2043E+03
     77.244  0.0000E+00  0.2062E+03
     77.853  0.0000E+00  0.2088E+03
     78.462  0.0000E+00  0.2126E+03
     79.072  0.0000E+00  0.2148E+03
     79.681  0.0000E+00  0.2170E+03
     80.290  0.0000E+00  0.2193E+03
     80.900  0.0000E+00  0.2215E+03
     81.509  0.0000E+00  0.2244E+03
     82.118  0.1823E+00  0.2268E+03
     82.728  0.0000E+00  0.2285E+03
     83.337  0.0000E+00  0.2309E+03
     83.946  0.0000E+00  0.2328E+03
     84.555  0.0000E+00  0.2347E+03
     85.165  0.0000E+00  0.2372E+03
     85.774  0.0000E+00  0.2391E+03
     86.383  0.0000E+00  0.2416E+03
     86.993  0.5156E+00  0.2444E+03
     87.602  0.0000E+00  0.2466E+03
     88.211  0.1520E-01  0.2490E+03
     88.821  0.0000E+00  0.2518E+03
     89.430  0.0000E+00  0.2537E+03
     90.039  0.3647E+00  0.2561E+03
     90.649  0.0000E+00  0.2586E+03
     91.258  0.0000E+00  0.2609E+03
     91.867  0.5314E-16  0.2632E+03
     92.476  0.0000E+00  0.2653E+03
     93.086  0.0000E+00  0.2669E+03
     93.695  0.0000E+00  0.2698E+03
     94.304  0.0000E+00  0.2721E+03
     94.914  0.0000E+00  0.2746E+03
     95.523  0.0000E+00  0.2764E+03
     96.132  0.1216E+00  0.2785E+03
     96.742  0.0000E+00  0.2818E+03
     97.351  0.0000E+00  0.2846E+03
     97.960  0.1824E+00  0.2876E+03
     98.570  0.1801E-14  0.2903E+03
     99.179  0.0000E+00  0.2932E+03
     99.788  0.0000E+00  0.2940E+03
    100.398  0.0000E+00  0.2964E+03
    101.007  0.0000E+00  0.2995E+03
    101.616  0.0000E+00  0.3016E+03
    102.225  0.0000E+00  0.3036E+03
    102.835  0.0000E+00  0.3052E+03
    103.444  0.9118E-01  0.3077E+03
    104.053  0.1950E+00  0.3110E+03
    104.663  0.1112E-02  0.3135E+03
    105.272  0.9118E-01  0.3164E+03
    105.881  0.1824E+00  0.3197E+03
    106.491  0.1824E+00  0.3218E+03
    107.100  0.0000E+00  0.3247E+03
    107.709  0.0000E+00  0.3270E+03
    108.319  0.3647E+00  0.3291E+03
    108.928  0.0000E+00  0.3319E+03
    109.537  0.0000E+00  0.3345E+03
    110.146  0.0000E+00  0.3378E+03
    110.756  0.0000E+00  0.3395E+03
    111.365  0.0000E+00  0.3420E+03
    111.974  0.0000E+00  0.3434E+03
    112.584  0.9118E-01  0.3465E+03
    113.193  0.1680E+00  0.3487E+03
    113.802  0.0000E+00  0.3511E+03
    114.412  0.1118E+00  0.3536E+03
    115.021  0.0000E+00  0.3565E+03
    115.630  0.3908E-02  0.3591E+03
    116.240  0.0000E+00  0.3630E+03
    116.849  0.0000E+00  0.3657E+03
    117.458  0.0000E+00  0.3699E+03
    118.068  0.0000E+00  0.3724E+03
    118.677  0.0000E+00  0.3750E+03
    119.286  0.0000E+00  0.3759E+03
    119.895  0.0000E+00  0.3780E+03
    120.505  0.5569E-08  0.3809E+03
    121.114  0.0000E+00  0.3824E+03
    121.723  0.0000E+00  0.3832E+03
    122.333  0.0000E+00  0.3835E+03
    122.942  0.0000E+00  0.3837E+03
    123.551  0.0000E+00  0.3838E+03
    124.161  0.0000E+00  0.3840E+03
    124.770  0.0000E+00  0.3840E+03
    125.379  0.0000E+00  0.3840E+03
    125.989  0.0000E+00  0.3840E+03
    126.598  0.0000E+00  0.3840E+03
    127.207  0.0000E+00  0.3840E+03
    127.817  0.0000E+00  0.3840E+03
    128.426  0.0000E+00  0.3840E+03
    129.035  0.0000E+00  0.3840E+03
    129.644  0.0000E+00  0.3840E+03
    130.254  0.0000E+00  0.3840E+03
    130.863  0.0000E+00  0.3840E+03
    131.472  0.0000E+00  0.3840E+03
    132.082  0.0000E+00  0.3840E+03
    132.691  0.0000E+00  0.3840E+03
    133.300  0.0000E+00  0.3840E+03
    133.910  0.0000E+00  0.3840E+03
