   1   1   0   0
  0.6008441E+02  0.4396350E-09  0.4396350E-09  0.4396350E-09  0.1000000E-15
  1.000000000000000E-004
  CAR 
 Og_FCC                                  
    102.17789015   -234.84710135  301      3.68288421      1.00000000
   -234.847  0.0000E+00  0.0000E+00
   -233.724  0.0000E+00  0.0000E+00
   -232.600  0.0000E+00  0.0000E+00
   -231.477  0.0000E+00  0.0000E+00
   -230.353  0.0000E+00  0.0000E+00
   -229.230  0.0000E+00  0.0000E+00
   -228.107  0.0000E+00  0.0000E+00
   -226.983  0.0000E+00  0.0000E+00
   -225.860  0.0000E+00  0.0000E+00
   -224.736  0.0000E+00  0.0000E+00
   -223.613  0.0000E+00  0.0000E+00
   -222.490  0.0000E+00  0.0000E+00
   -221.366  0.0000E+00  0.0000E+00
   -220.243  0.0000E+00  0.0000E+00
   -219.119  0.0000E+00  0.2000E+01
   -217.996  0.0000E+00  0.2000E+01
   -216.872  0.0000E+00  0.2000E+01
   -215.749  0.0000E+00  0.2000E+01
   -214.626  0.0000E+00  0.2000E+01
   -213.502  0.0000E+00  0.2000E+01
   -212.379  0.0000E+00  0.2000E+01
   -211.255  0.0000E+00  0.2000E+01
   -210.132  0.0000E+00  0.2000E+01
   -209.009  0.0000E+00  0.2000E+01
   -207.885  0.0000E+00  0.2000E+01
   -206.762  0.0000E+00  0.2000E+01
   -205.638  0.0000E+00  0.2000E+01
   -204.515  0.0000E+00  0.2000E+01
   -203.391  0.0000E+00  0.2000E+01
   -202.268  0.0000E+00  0.2000E+01
   -201.145  0.0000E+00  0.2000E+01
   -200.021  0.0000E+00  0.2000E+01
   -198.898  0.0000E+00  0.2000E+01
   -197.774  0.0000E+00  0.2000E+01
   -196.651  0.0000E+00  0.2000E+01
   -195.528  0.0000E+00  0.2000E+01
   -194.404  0.0000E+00  0.2000E+01
   -193.281  0.0000E+00  0.2000E+01
   -192.157  0.0000E+00  0.2000E+01
   -191.034  0.0000E+00  0.2000E+01
   -189.910  0.0000E+00  0.2000E+01
   -188.787  0.0000E+00  0.2000E+01
   -187.664  0.0000E+00  0.2000E+01
   -186.540  0.0000E+00  0.2000E+01
   -185.417  0.0000E+00  0.2000E+01
   -184.293  0.0000E+00  0.2000E+01
   -183.170  0.0000E+00  0.2000E+01
   -182.047  0.0000E+00  0.2000E+01
   -180.923  0.0000E+00  0.2000E+01
   -179.800  0.0000E+00  0.2000E+01
   -178.676  0.0000E+00  0.2000E+01
   -177.553  0.0000E+00  0.2000E+01
   -176.429  0.0000E+00  0.2000E+01
   -175.306  0.0000E+00  0.2000E+01
   -174.183  0.0000E+00  0.2000E+01
   -173.059  0.0000E+00  0.2000E+01
   -171.936  0.0000E+00  0.2000E+01
   -170.812  0.0000E+00  0.2000E+01
   -169.689  0.0000E+00  0.2000E+01
   -168.566  0.0000E+00  0.2000E+01
   -167.442  0.0000E+00  0.2000E+01
   -166.319  0.0000E+00  0.2000E+01
   -165.195  0.0000E+00  0.2000E+01
   -164.072  0.0000E+00  0.2000E+01
   -162.948  0.0000E+00  0.2000E+01
   -161.825  0.0000E+00  0.2000E+01
   -160.702  0.0000E+00  0.2000E+01
   -159.578  0.0000E+00  0.2000E+01
   -158.455  0.0000E+00  0.2000E+01
   -157.331  0.0000E+00  0.2000E+01
   -156.208  0.0000E+00  0.2000E+01
   -155.085  0.0000E+00  0.2000E+01
   -153.961  0.0000E+00  0.2000E+01
   -152.838  0.0000E+00  0.2000E+01
   -151.714  0.0000E+00  0.2000E+01
   -150.591  0.0000E+00  0.2000E+01
   -149.467  0.0000E+00  0.2000E+01
   -148.344  0.0000E+00  0.2000E+01
   -147.221  0.0000E+00  0.2000E+01
   -146.097  0.0000E+00  0.2000E+01
   -144.974  0.0000E+00  0.2000E+01
   -143.850  0.0000E+00  0.2000E+01
   -142.727  0.0000E+00  0.2000E+01
   -141.604  0.0000E+00  0.2000E+01
   -140.480  0.0000E+00  0.2000E+01
   -139.357  0.0000E+00  0.2000E+01
   -138.233  0.0000E+00  0.2000E+01
   -137.110  0.0000E+00  0.4000E+01
   -135.986  0.0000E+00  0.4000E+01
   -134.863  0.0000E+00  0.4000E+01
   -133.740  0.0000E+00  0.4000E+01
   -132.616  0.0000E+00  0.4000E+01
   -131.493  0.0000E+00  0.4000E+01
   -130.369  0.0000E+00  0.4000E+01
   -129.246  0.0000E+00  0.4000E+01
   -128.123  0.0000E+00  0.4000E+01
   -126.999  0.0000E+00  0.4000E+01
   -125.876  0.0000E+00  0.4000E+01
   -124.752  0.0000E+00  0.4000E+01
   -123.629  0.0000E+00  0.4000E+01
   -122.505  0.0000E+00  0.4000E+01
   -121.382  0.0000E+00  0.4000E+01
   -120.259  0.0000E+00  0.4000E+01
   -119.135  0.0000E+00  0.4000E+01
   -118.012  0.0000E+00  0.4000E+01
   -116.888  0.0000E+00  0.4000E+01
   -115.765  0.0000E+00  0.4000E+01
   -114.642  0.0000E+00  0.4000E+01
   -113.518  0.0000E+00  0.4000E+01
   -112.395  0.0000E+00  0.4000E+01
   -111.271  0.0000E+00  0.4000E+01
   -110.148  0.0000E+00  0.4000E+01
   -109.024  0.0000E+00  0.4000E+01
   -107.901  0.0000E+00  0.4000E+01
   -106.778  0.0000E+00  0.4000E+01
   -105.654  0.0000E+00  0.4000E+01
   -104.531  0.0000E+00  0.4000E+01
   -103.407  0.0000E+00  0.4000E+01
   -102.284  0.0000E+00  0.4000E+01
   -101.161  0.0000E+00  0.4000E+01
   -100.037  0.0000E+00  0.4000E+01
    -98.914  0.0000E+00  0.4000E+01
    -97.790  0.0000E+00  0.4000E+01
    -96.667  0.0000E+00  0.4000E+01
    -95.543  0.0000E+00  0.4000E+01
    -94.420  0.0000E+00  0.4000E+01
    -93.297  0.0000E+00  0.4000E+01
    -92.173  0.0000E+00  0.4000E+01
    -91.050  0.0000E+00  0.4000E+01
    -89.926  0.0000E+00  0.8000E+01
    -88.803  0.0000E+00  0.8000E+01
    -87.680  0.0000E+00  0.8000E+01
    -86.556  0.0000E+00  0.8000E+01
    -85.433  0.0000E+00  0.8000E+01
    -84.309  0.0000E+00  0.8000E+01
    -83.186  0.0000E+00  0.8000E+01
    -82.062  0.0000E+00  0.8000E+01
    -80.939  0.0000E+00  0.8000E+01
    -79.816  0.0000E+00  0.8000E+01
    -78.692  0.0000E+00  0.8000E+01
    -77.569  0.0000E+00  0.8000E+01
    -76.445  0.0000E+00  0.8000E+01
    -75.322  0.0000E+00  0.8000E+01
    -74.199  0.0000E+00  0.8000E+01
    -73.075  0.0000E+00  0.8000E+01
    -71.952  0.0000E+00  0.8000E+01
    -70.828  0.0000E+00  0.8000E+01
    -69.705  0.0000E+00  0.8000E+01
    -68.581  0.0000E+00  0.8000E+01
    -67.458  0.0000E+00  0.8000E+01
    -66.335  0.0000E+00  0.8000E+01
    -65.211  0.0000E+00  0.8000E+01
    -64.088  0.0000E+00  0.8000E+01
    -62.964  0.0000E+00  0.8000E+01
    -61.841  0.0000E+00  0.8000E+01
    -60.718  0.0000E+00  0.8000E+01
    -59.594  0.0000E+00  0.8000E+01
    -58.471  0.0000E+00  0.8000E+01
    -57.347  0.0000E+00  0.8000E+01
    -56.224  0.0000E+00  0.8000E+01
    -55.100  0.0000E+00  0.8000E+01
    -53.977  0.0000E+00  0.8000E+01
    -52.854  0.0000E+00  0.8000E+01
    -51.730  0.0000E+00  0.8000E+01
    -50.607  0.0000E+00  0.8000E+01
    -49.483  0.0000E+00  0.8000E+01
    -48.360  0.0000E+00  0.8000E+01
    -47.237  0.0000E+00  0.8000E+01
    -46.113  0.0000E+00  0.8000E+01
    -44.990  0.0000E+00  0.8000E+01
    -43.866  0.0000E+00  0.8000E+01
    -42.743  0.0000E+00  0.8000E+01
    -41.619  0.0000E+00  0.8000E+01
    -40.496  0.0000E+00  0.8000E+01
    -39.373  0.0000E+00  0.8000E+01
    -38.249  0.0000E+00  0.8000E+01
    -37.126  0.0000E+00  0.8000E+01
    -36.002  0.0000E+00  0.8000E+01
    -34.879  0.0000E+00  0.8000E+01
    -33.756  0.0000E+00  0.8000E+01
    -32.632  0.0000E+00  0.1200E+02
    -31.509  0.0000E+00  0.1200E+02
    -30.385  0.0000E+00  0.1200E+02
    -29.262  0.0000E+00  0.1200E+02
    -28.138  0.0000E+00  0.1200E+02
    -27.015  0.0000E+00  0.1200E+02
    -25.892  0.0000E+00  0.1800E+02
    -24.768  0.0000E+00  0.1800E+02
    -23.645  0.0000E+00  0.1800E+02
    -22.521  0.0000E+00  0.1800E+02
    -21.398  0.0000E+00  0.1800E+02
    -20.275  0.0000E+00  0.2000E+02
    -19.151  0.0000E+00  0.2000E+02
    -18.028  0.0000E+00  0.2000E+02
    -16.904  0.0000E+00  0.2000E+02
    -15.781  0.0000E+00  0.2000E+02
    -14.657  0.0000E+00  0.2000E+02
    -13.534  0.0000E+00  0.2000E+02
    -12.411  0.0000E+00  0.2000E+02
    -11.287  0.0000E+00  0.2000E+02
    -10.164  0.0000E+00  0.2000E+02
     -9.040  0.0000E+00  0.2000E+02
     -7.917  0.0000E+00  0.2000E+02
     -6.794  0.0000E+00  0.2000E+02
     -5.670  0.0000E+00  0.2000E+02
     -4.547  0.0000E+00  0.2000E+02
     -3.423  0.0000E+00  0.2186E+02
     -2.300  0.0000E+00  0.2200E+02
     -1.176  0.0000E+00  0.2200E+02
     -0.053  0.0000E+00  0.2200E+02
      1.070  0.0000E+00  0.2340E+02
      2.194  0.1228E-01  0.2467E+02
      3.317  0.0000E+00  0.2591E+02
      4.441  0.0000E+00  0.2601E+02
      5.564  0.0000E+00  0.2608E+02
      6.687  0.0000E+00  0.2639E+02
      7.811  0.0000E+00  0.2781E+02
      8.934  0.0000E+00  0.2886E+02
     10.058  0.0000E+00  0.3032E+02
     11.181  0.0000E+00  0.3251E+02
     12.305  0.0000E+00  0.3420E+02
     13.428  0.1770E+00  0.3650E+02
     14.551  0.0000E+00  0.3851E+02
     15.675  0.0000E+00  0.4040E+02
     16.798  0.0000E+00  0.4286E+02
     17.922  0.0000E+00  0.4619E+02
     19.045  0.0000E+00  0.5081E+02
     20.168  0.0000E+00  0.5344E+02
     21.292  0.0000E+00  0.5441E+02
     22.415  0.0000E+00  0.5599E+02
     23.539  0.0000E+00  0.5853E+02
     24.662  0.0000E+00  0.6206E+02
     25.786  0.0000E+00  0.6543E+02
     26.909  0.5327E-01  0.6731E+02
     28.032  0.2967E+00  0.6969E+02
     29.156  0.6594E-01  0.7166E+02
     30.279  0.0000E+00  0.7408E+02
     31.403  0.0000E+00  0.7776E+02
     32.526  0.0000E+00  0.8088E+02
     33.649  0.0000E+00  0.8269E+02
     34.773  0.0000E+00  0.8613E+02
     35.896  0.4945E-01  0.8969E+02
     37.020  0.0000E+00  0.9191E+02
     38.143  0.0000E+00  0.9440E+02
     39.267  0.1329E-05  0.9755E+02
     40.390  0.0000E+00  0.1008E+03
     41.513  0.9858E-01  0.1044E+03
     42.637  0.0000E+00  0.1066E+03
     43.760  0.0000E+00  0.1095E+03
     44.884  0.0000E+00  0.1136E+03
     46.007  0.0000E+00  0.1168E+03
     47.130  0.0000E+00  0.1200E+03
     48.254  0.0000E+00  0.1233E+03
     49.377  0.0000E+00  0.1266E+03
     50.501  0.0000E+00  0.1305E+03
     51.624  0.0000E+00  0.1346E+03
     52.748  0.4078E-09  0.1373E+03
     53.871  0.2473E-01  0.1406E+03
     54.994  0.0000E+00  0.1448E+03
     56.118  0.0000E+00  0.1475E+03
     57.241  0.4945E-01  0.1511E+03
     58.365  0.5453E-01  0.1551E+03
     59.488  0.0000E+00  0.1587E+03
     60.611  0.1978E+00  0.1625E+03
     61.735  0.2689E-10  0.1654E+03
     62.858  0.0000E+00  0.1703E+03
     63.982  0.0000E+00  0.1736E+03
     65.105  0.0000E+00  0.1783E+03
     66.229  0.1131E-05  0.1815E+03
     67.352  0.0000E+00  0.1854E+03
     68.475  0.0000E+00  0.1888E+03
     69.599  0.3956E+00  0.1936E+03
     70.722  0.0000E+00  0.1967E+03
     71.846  0.0000E+00  0.2020E+03
     72.969  0.0000E+00  0.2056E+03
     74.092  0.3951E+00  0.2097E+03
     75.216  0.0000E+00  0.2141E+03
     76.339  0.0000E+00  0.2176E+03
     77.463  0.0000E+00  0.2216E+03
     78.586  0.1978E+00  0.2262E+03
     79.710  0.0000E+00  0.2307E+03
     80.833  0.0000E+00  0.2344E+03
     81.956  0.0000E+00  0.2390E+03
     83.080  0.0000E+00  0.2430E+03
     84.203  0.0000E+00  0.2472E+03
     85.327  0.1978E+00  0.2515E+03
     86.450  0.0000E+00  0.2554E+03
     87.573  0.0000E+00  0.2560E+03
     88.697  0.0000E+00  0.2560E+03
     89.820  0.0000E+00  0.2560E+03
     90.944  0.0000E+00  0.2560E+03
     92.067  0.0000E+00  0.2560E+03
     93.191  0.0000E+00  0.2560E+03
     94.314  0.0000E+00  0.2560E+03
     95.437  0.0000E+00  0.2560E+03
     96.561  0.0000E+00  0.2560E+03
     97.684  0.0000E+00  0.2560E+03
     98.808  0.0000E+00  0.2560E+03
     99.931  0.0000E+00  0.2560E+03
    101.054  0.0000E+00  0.2560E+03
    102.178  0.0000E+00  0.2560E+03
