    1    1    1    1
  0.6008441E+02  0.4396350E-09  0.4396350E-09  0.4396350E-09  0.1000000E-15
  1.000000000000000E-004
  CAR 
 Og_FCC                                  
     26    216    256
 
  0.0000000E+00  0.0000000E+00  0.0000000E+00  0.4629630E-02
    1     -219.525790   1.000000
    2     -219.525758   1.000000
    3     -138.147913   1.000000
    4     -138.147896   1.000000
    5      -90.248427   1.000000
    6      -90.248414   1.000000
    7      -90.248289   1.000000
    8      -90.248276   1.000000
    9      -33.216677   1.000000
   10      -33.216624   1.000000
   11      -33.216506   1.000000
   12      -33.216455   1.000000
   13      -26.140543   1.000000
   14      -26.139864   1.000000
   15      -26.138437   1.000000
   16      -26.138053   1.000000
   17      -26.137864   1.000000
   18      -26.137476   1.000000
   19      -21.362604   1.000000
   20      -21.361937   1.000000
   21       -3.063214   1.000000
   22       -3.062007   1.000000
   23        3.620933   1.000000
   24        3.621468   1.000000
   25        3.680522   0.999581
   26        3.680550   0.999518
   27        3.685218   0.000482
   28        3.685246   0.000419
   29       10.584269   0.000000
   30       10.584491   0.000000
   31       10.584955   0.000000
   32       10.585177   0.000000
   33       10.957236   0.000000
   34       10.958644   0.000000
   35       11.162616   0.000000
   36       11.163218   0.000000
   37       13.272273   0.000000
   38       13.274588   0.000000
   39       13.456857   0.000000
   40       13.456962   0.000000
   41       13.458024   0.000000
   42       13.458128   0.000000
   43       13.795445   0.000000
   44       13.796895   0.000000
   45       13.797649   0.000000
   46       13.799099   0.000000
   47       16.246003   0.000000
   48       16.246454   0.000000
   49       19.914898   0.000000
   50       19.915203   0.000000
   51       19.915419   0.000000
   52       19.916365   0.000000
   53       19.916581   0.000000
   54       19.916886   0.000000
   55       24.246743   0.000000
   56       24.248653   0.000000
   57       25.564566   0.000000
   58       25.564667   0.000000
   59       25.566625   0.000000
   60       25.566727   0.000000
   61       25.701072   0.000000
   62       25.701757   0.000000
   63       27.927066   0.000000
   64       27.927591   0.000000
   65       28.722550   0.000000
   66       28.723428   0.000000
   67       28.723761   0.000000
   68       28.724641   0.000000
   69       29.234109   0.000000
   70       29.234742   0.000000
   71       29.468843   0.000000
   72       29.469221   0.000000
   73       29.469790   0.000000
   74       29.470170   0.000000
   75       29.870881   0.000000
   76       29.871198   0.000000
   77       30.800515   0.000000
   78       30.800641   0.000000
   79       30.801803   0.000000
   80       30.801929   0.000000
   81       36.915414   0.000000
   82       36.915633   0.000000
   83       36.916103   0.000000
   84       36.916378   0.000000
   85       36.916848   0.000000
   86       36.917067   0.000000
   87       37.940062   0.000000
   88       37.940343   0.000000
   89       37.941226   0.000000
   90       37.942720   0.000000
   91       37.943603   0.000000
   92       37.943885   0.000000
   93       39.234403   0.000000
   94       39.235752   0.000000
   95       40.230583   0.000000
   96       40.230803   0.000000
   97       40.231101   0.000000
   98       40.231321   0.000000
   99       40.517862   0.000000
  100       40.518628   0.000000
  101       41.532969   0.000000
  102       41.534180   0.000000
  103       41.534854   0.000000
  104       41.536077   0.000000
  105       41.547302   0.000000
  106       41.548119   0.000000
  107       42.405671   0.000000
  108       42.406157   0.000000
  109       42.406498   0.000000
  110       42.406984   0.000000
  111       42.828921   0.000000
  112       42.828991   0.000000
  113       42.830930   0.000000
  114       42.831001   0.000000
  115       42.853859   0.000000
  116       42.854398   0.000000
  117       42.854904   0.000000
  118       42.855444   0.000000
  119       43.111784   0.000000
  120       43.112486   0.000000
  121       44.204376   0.000000
  122       44.205213   0.000000
  123       44.842546   0.000000
  124       44.843707   0.000000
  125       45.098448   0.000000
  126       45.098566   0.000000
  127       45.099817   0.000000
  128       45.099935   0.000000
  129       45.905975   0.000000
  130       45.906375   0.000000
  131       46.166504   0.000000
  132       46.166776   0.000000
  133       46.167155   0.000000
  134       46.167427   0.000000
  135       46.255495   0.000000
  136       46.256524   0.000000
  137       49.194147   0.000000
  138       49.194544   0.000000
  139       49.194674   0.000000
  140       49.195677   0.000000
  141       49.195807   0.000000
  142       49.196205   0.000000
  143       52.293590   0.000000
  144       52.295483   0.000000
  145       52.384825   0.000000
  146       52.384967   0.000000
  147       52.386184   0.000000
  148       52.386327   0.000000
  149       56.465298   0.000000
  150       56.465892   0.000000
  151       57.513017   0.000000
  152       57.513783   0.000000
  153       57.677810   0.000000
  154       57.677911   0.000000
  155       57.678623   0.000000
  156       57.678725   0.000000
  157       63.955863   0.000000
  158       63.956355   0.000000
  159       64.380227   0.000000
  160       64.380561   0.000000
  161       64.381181   0.000000
  162       64.381515   0.000000
  163       65.085932   0.000000
  164       65.086129   0.000000
  165       65.087270   0.000000
  166       65.087468   0.000000
  167       65.188793   0.000000
  168       65.188900   0.000000
  169       66.009699   0.000000
  170       66.010609   0.000000
  171       66.011008   0.000000
  172       66.011917   0.000000
  173       67.256772   0.000000
  174       67.256942   0.000000
  175       67.257577   0.000000
  176       67.258828   0.000000
  177       67.259462   0.000000
  178       67.259632   0.000000
  179       69.913646   0.000000
  180       69.914636   0.000000
  181       70.773772   0.000000
  182       70.773871   0.000000
  183       70.775570   0.000000
  184       70.775669   0.000000
  185       71.341353   0.000000
  186       71.342533   0.000000
  187       71.343120   0.000000
  188       71.344300   0.000000
  189       72.461171   0.000000
  190       72.461282   0.000000
  191       72.461777   0.000000
  192       72.462188   0.000000
  193       72.462683   0.000000
  194       72.462793   0.000000
  195       72.537724   0.000000
  196       72.538023   0.000000
  197       72.538690   0.000000
  198       72.538956   0.000000
  199       72.539623   0.000000
  200       72.539923   0.000000
  201       73.024754   0.000000
  202       73.025546   0.000000
  203       73.714848   0.000000
  204       73.715638   0.000000
  205       74.841529   0.000000
  206       74.842478   0.000000
  207       75.076241   0.000000
  208       75.076358   0.000000
  209       75.077928   0.000000
  210       75.078045   0.000000
  211       75.190673   0.000000
  212       75.190883   0.000000
  213       75.191802   0.000000
  214       75.192012   0.000000
  215       75.495815   0.000000
  216       75.496567   0.000000
  217       76.767513   0.000000
  218       76.768752   0.000000
  219       76.768958   0.000000
  220       76.770197   0.000000
  221       76.874311   0.000000
  222       76.874447   0.000000
  223       76.874963   0.000000
  224       76.875645   0.000000
  225       76.876161   0.000000
  226       76.876297   0.000000
  227       77.057286   0.000000
  228       77.057548   0.000000
  229       77.832897   0.000000
  230       77.833033   0.000000
  231       77.834043   0.000000
  232       77.834179   0.000000
  233       78.405516   0.000000
  234       78.406013   0.000000
  235       80.013924   0.000000
  236       80.014062   0.000000
  237       80.014441   0.000000
  238       80.014578   0.000000
  239       80.121446   0.000000
  240       80.122151   0.000000
  241       80.303765   0.000000
  242       80.304160   0.000000
  243       80.481025   0.000000
  244       80.482144   0.000000
  245       80.482560   0.000000
  246       80.483679   0.000000
  247       83.367828   0.000000
  248       83.369320   0.000000
  249       83.680518   0.000000
  250       83.680593   0.000000
  251       83.681639   0.000000
  252       83.681714   0.000000
  253       85.482965   0.000000
  254       85.483012   0.000000
  255       85.483547   0.000000
  256       85.484105   0.000000
 
  0.1666667E+00 -0.4006644E-16 -0.6938894E-17  0.4629630E-02
    1     -219.505889   1.000000
    2     -219.505857   1.000000
    3     -137.782565   1.000000
    4     -137.782549   1.000000
    5      -90.211634   1.000000
    6      -90.211533   1.000000
    7      -90.145033   1.000000
    8      -90.144945   1.000000
    9      -33.214411   1.000000
   10      -33.214266   1.000000
   11      -33.210240   1.000000
   12      -33.210104   1.000000
   13      -26.139049   1.000000
   14      -26.138708   1.000000
   15      -26.137073   1.000000
   16      -26.136900   1.000000
   17      -26.136273   1.000000
   18      -26.135653   1.000000
   19      -21.342362   1.000000
   20      -21.341696   1.000000
   21       -3.248712   1.000000
   22       -3.247559   1.000000
   23        2.163932   1.000000
   24        2.165982   1.000000
   25        3.541152   1.000000
   26        3.544273   1.000000
   27        5.323887   0.000000
   28        5.324885   0.000000
   29        9.743296   0.000000
   30        9.744083   0.000000
   31       10.767394   0.000000
   32       10.767797   0.000000
   33       11.098805   0.000000
   34       11.099390   0.000000
   35       12.154190   0.000000
   36       12.155079   0.000000
   37       12.282816   0.000000
   38       12.284389   0.000000
   39       12.422651   0.000000
   40       12.424181   0.000000
   41       13.608304   0.000000
   42       13.609382   0.000000
   43       15.571191   0.000000
   44       15.572846   0.000000
   45       15.658947   0.000000
   46       15.660649   0.000000
   47       17.949062   0.000000
   48       17.949589   0.000000
   49       19.459269   0.000000
   50       19.460497   0.000000
   51       19.544642   0.000000
   52       19.545993   0.000000
   53       19.979583   0.000000
   54       19.980897   0.000000
   55       22.508458   0.000000
   56       22.508995   0.000000
   57       24.586821   0.000000
   58       24.587521   0.000000
   59       25.038157   0.000000
   60       25.039547   0.000000
   61       25.329731   0.000000
   62       25.330765   0.000000
   63       26.581831   0.000000
   64       26.582761   0.000000
   65       27.345110   0.000000
   66       27.345544   0.000000
   67       27.921053   0.000000
   68       27.921771   0.000000
   69       29.377218   0.000000
   70       29.378695   0.000000
   71       29.805579   0.000000
   72       29.806303   0.000000
   73       29.968241   0.000000
   74       29.969044   0.000000
   75       30.574105   0.000000
   76       30.574246   0.000000
   77       32.114337   0.000000
   78       32.115655   0.000000
   79       34.821057   0.000000
   80       34.821789   0.000000
   81       35.006196   0.000000
   82       35.006978   0.000000
   83       35.712739   0.000000
   84       35.713146   0.000000
   85       35.818866   0.000000
   86       35.819842   0.000000
   87       35.960263   0.000000
   88       35.960594   0.000000
   89       37.501108   0.000000
   90       37.501407   0.000000
   91       38.158546   0.000000
   92       38.160148   0.000000
   93       38.575285   0.000000
   94       38.576069   0.000000
   95       38.611683   0.000000
   96       38.612570   0.000000
   97       38.727511   0.000000
   98       38.727945   0.000000
   99       39.563024   0.000000
  100       39.563323   0.000000
  101       39.598940   0.000000
  102       39.599239   0.000000
  103       40.533376   0.000000
  104       40.534138   0.000000
  105       40.544570   0.000000
  106       40.545321   0.000000
  107       41.465786   0.000000
  108       41.466210   0.000000
  109       42.035241   0.000000
  110       42.036091   0.000000
  111       42.315097   0.000000
  112       42.315869   0.000000
  113       43.338232   0.000000
  114       43.338856   0.000000
  115       43.819092   0.000000
  116       43.819659   0.000000
  117       43.924899   0.000000
  118       43.925919   0.000000
  119       44.006326   0.000000
  120       44.007295   0.000000
  121       45.189833   0.000000
  122       45.190659   0.000000
  123       46.232162   0.000000
  124       46.232600   0.000000
  125       46.476712   0.000000
  126       46.477380   0.000000
  127       47.519700   0.000000
  128       47.520399   0.000000
  129       48.392081   0.000000
  130       48.392855   0.000000
  131       48.395611   0.000000
  132       48.396056   0.000000
  133       48.983689   0.000000
  134       48.984649   0.000000
  135       49.420127   0.000000
  136       49.420812   0.000000
  137       50.639216   0.000000
  138       50.639877   0.000000
  139       50.921485   0.000000
  140       50.922320   0.000000
  141       51.080637   0.000000
  142       51.081157   0.000000
  143       52.266041   0.000000
  144       52.266864   0.000000
  145       52.340151   0.000000
  146       52.340884   0.000000
  147       52.751545   0.000000
  148       52.752116   0.000000
  149       55.723602   0.000000
  150       55.724327   0.000000
  151       57.783256   0.000000
  152       57.783985   0.000000
  153       57.856298   0.000000
  154       57.856953   0.000000
  155       58.745801   0.000000
  156       58.746571   0.000000
  157       61.328548   0.000000
  158       61.329629   0.000000
  159       61.559296   0.000000
  160       61.560243   0.000000
  161       62.519573   0.000000
  162       62.520225   0.000000
  163       62.564387   0.000000
  164       62.565907   0.000000
  165       63.891772   0.000000
  166       63.892670   0.000000
  167       64.467275   0.000000
  168       64.468095   0.000000
  169       64.901807   0.000000
  170       64.902646   0.000000
  171       65.923407   0.000000
  172       65.924824   0.000000
  173       66.002629   0.000000
  174       66.002855   0.000000
  175       67.801095   0.000000
  176       67.801799   0.000000
  177       68.298144   0.000000
  178       68.298634   0.000000
  179       68.428227   0.000000
  180       68.428956   0.000000
  181       68.973100   0.000000
  182       68.973895   0.000000
  183       68.994345   0.000000
  184       68.995088   0.000000
  185       69.557755   0.000000
  186       69.558600   0.000000
  187       69.567763   0.000000
  188       69.568461   0.000000
  189       69.781021   0.000000
  190       69.781638   0.000000
  191       70.346048   0.000000
  192       70.346942   0.000000
  193       71.065253   0.000000
  194       71.065590   0.000000
  195       71.304586   0.000000
  196       71.305634   0.000000
  197       72.583585   0.000000
  198       72.584680   0.000000
  199       72.866797   0.000000
  200       72.867146   0.000000
  201       73.588642   0.000000
  202       73.589492   0.000000
  203       73.616748   0.000000
  204       73.617392   0.000000
  205       74.039527   0.000000
  206       74.040896   0.000000
  207       74.496267   0.000000
  208       74.497325   0.000000
  209       74.949849   0.000000
  210       74.950732   0.000000
  211       76.173696   0.000000
  212       76.174914   0.000000
  213       76.198861   0.000000
  214       76.199904   0.000000
  215       76.436489   0.000000
  216       76.436893   0.000000
  217       76.439038   0.000000
  218       76.440484   0.000000
  219       76.586160   0.000000
  220       76.586651   0.000000
  221       77.248007   0.000000
  222       77.248658   0.000000
  223       77.988801   0.000000
  224       77.989400   0.000000
  225       78.017758   0.000000
  226       78.018517   0.000000
  227       78.354966   0.000000
  228       78.355323   0.000000
  229       78.853978   0.000000
  230       78.854901   0.000000
  231       79.396401   0.000000
  232       79.398070   0.000000
  233       79.402898   0.000000
  234       79.403747   0.000000
  235       81.037263   0.000000
  236       81.038023   0.000000
  237       81.086673   0.000000
  238       81.087604   0.000000
  239       81.527704   0.000000
  240       81.528388   0.000000
  241       81.588930   0.000000
  242       81.589240   0.000000
  243       82.291276   0.000000
  244       82.292000   0.000000
  245       82.376453   0.000000
  246       82.376848   0.000000
  247       82.652994   0.000000
  248       82.653796   0.000000
  249       83.861124   0.000000
  250       83.861517   0.000000
  251       83.971749   0.000000
  252       83.972201   0.000000
  253       84.679971   0.000000
  254       84.680460   0.000000
  255       84.724560   0.000000
  256       84.725177   0.000000
 
  0.3333333E+00 -0.2462172E-16  0.4163336E-16  0.4629630E-02
    1     -219.483082   1.000000
    2     -219.483050   1.000000
    3     -137.350559   1.000000
    4     -137.350544   1.000000
    5      -90.116252   1.000000
    6      -90.116164   1.000000
    7      -90.070248   1.000000
    8      -90.070149   1.000000
    9      -33.207231   1.000000
   10      -33.207096   1.000000
   11      -33.205202   1.000000
   12      -33.205057   1.000000
   13      -26.137039   1.000000
   14      -26.136816   1.000000
   15      -26.134445   1.000000
   16      -26.133993   1.000000
   17      -26.132461   1.000000
   18      -26.131832   1.000000
   19      -21.301481   1.000000
   20      -21.300816   1.000000
   21       -3.613560   1.000000
   22       -3.612523   1.000000
   23        1.258294   1.000000
   24        1.260444   1.000000
   25        3.292496   1.000000
   26        3.295416   1.000000
   27        6.059333   0.000000
   28        6.060020   0.000000
   29       10.372795   0.000000
   30       10.373358   0.000000
   31       10.570648   0.000000
   32       10.571353   0.000000
   33       10.794985   0.000000
   34       10.795938   0.000000
   35       11.300113   0.000000
   36       11.300920   0.000000
   37       13.080957   0.000000
   38       13.081591   0.000000
   39       13.293005   0.000000
   40       13.294039   0.000000
   41       16.554247   0.000000
   42       16.555509   0.000000
   43       17.474001   0.000000
   44       17.475525   0.000000
   45       17.620413   0.000000
   46       17.622314   0.000000
   47       17.819045   0.000000
   48       17.820382   0.000000
   49       18.134717   0.000000
   50       18.136003   0.000000
   51       18.643629   0.000000
   52       18.645200   0.000000
   53       20.182108   0.000000
   54       20.183451   0.000000
   55       20.972382   0.000000
   56       20.972993   0.000000
   57       24.090656   0.000000
   58       24.091470   0.000000
   59       24.637126   0.000000
   60       24.638178   0.000000
   61       24.722192   0.000000
   62       24.723266   0.000000
   63       26.092972   0.000000
   64       26.093550   0.000000
   65       26.444282   0.000000
   66       26.445001   0.000000
   67       26.908008   0.000000
   68       26.908629   0.000000
   69       29.529035   0.000000
   70       29.529392   0.000000
   71       30.132753   0.000000
   72       30.134340   0.000000
   73       30.667970   0.000000
   74       30.668969   0.000000
   75       30.992631   0.000000
   76       30.993495   0.000000
   77       31.140866   0.000000
   78       31.141851   0.000000
   79       31.341772   0.000000
   80       31.342921   0.000000
   81       33.138507   0.000000
   82       33.139276   0.000000
   83       33.300179   0.000000
   84       33.300808   0.000000
   85       34.368777   0.000000
   86       34.369865   0.000000
   87       34.796838   0.000000
   88       34.798223   0.000000
   89       35.193338   0.000000
   90       35.193638   0.000000
   91       35.622551   0.000000
   92       35.623542   0.000000
   93       38.479753   0.000000
   94       38.480944   0.000000
   95       38.503468   0.000000
   96       38.504371   0.000000
   97       39.433624   0.000000
   98       39.434123   0.000000
   99       39.554974   0.000000
  100       39.555276   0.000000
  101       39.967725   0.000000
  102       39.967958   0.000000
  103       41.298173   0.000000
  104       41.298778   0.000000
  105       41.852942   0.000000
  106       41.853531   0.000000
  107       42.073582   0.000000
  108       42.074377   0.000000
  109       42.847223   0.000000
  110       42.848291   0.000000
  111       43.480209   0.000000
  112       43.480885   0.000000
  113       44.025305   0.000000
  114       44.025902   0.000000
  115       44.908379   0.000000
  116       44.908562   0.000000
  117       45.228020   0.000000
  118       45.228698   0.000000
  119       45.637598   0.000000
  120       45.638707   0.000000
  121       45.957592   0.000000
  122       45.958334   0.000000
  123       48.485173   0.000000
  124       48.486007   0.000000
  125       50.261815   0.000000
  126       50.262525   0.000000
  127       50.279121   0.000000
  128       50.279595   0.000000
  129       50.446733   0.000000
  130       50.447384   0.000000
  131       50.992805   0.000000
  132       50.993045   0.000000
  133       51.219516   0.000000
  134       51.220076   0.000000
  135       51.480905   0.000000
  136       51.481448   0.000000
  137       52.426629   0.000000
  138       52.427440   0.000000
  139       53.064557   0.000000
  140       53.065237   0.000000
  141       53.173561   0.000000
  142       53.174199   0.000000
  143       54.143941   0.000000
  144       54.145249   0.000000
  145       54.371108   0.000000
  146       54.372520   0.000000
  147       54.555430   0.000000
  148       54.556033   0.000000
  149       54.757507   0.000000
  150       54.758868   0.000000
  151       56.515731   0.000000
  152       56.516333   0.000000
  153       57.942597   0.000000
  154       57.943187   0.000000
  155       58.363784   0.000000
  156       58.364142   0.000000
  157       58.464020   0.000000
  158       58.465093   0.000000
  159       59.252101   0.000000
  160       59.252961   0.000000
  161       59.323629   0.000000
  162       59.324361   0.000000
  163       60.639844   0.000000
  164       60.640485   0.000000
  165       61.902755   0.000000
  166       61.902930   0.000000
  167       61.983262   0.000000
  168       61.983562   0.000000
  169       63.118291   0.000000
  170       63.119008   0.000000
  171       63.418100   0.000000
  172       63.419064   0.000000
  173       63.482535   0.000000
  174       63.483341   0.000000
  175       65.654474   0.000000
  176       65.655776   0.000000
  177       65.938847   0.000000
  178       65.940168   0.000000
  179       66.080083   0.000000
  180       66.081058   0.000000
  181       66.334296   0.000000
  182       66.334794   0.000000
  183       66.829466   0.000000
  184       66.830472   0.000000
  185       69.050306   0.000000
  186       69.050990   0.000000
  187       69.494325   0.000000
  188       69.494624   0.000000
  189       69.604364   0.000000
  190       69.605563   0.000000
  191       70.698386   0.000000
  192       70.698519   0.000000
  193       70.733960   0.000000
  194       70.734926   0.000000
  195       70.834377   0.000000
  196       70.835241   0.000000
  197       71.506964   0.000000
  198       71.507738   0.000000
  199       71.558549   0.000000
  200       71.559512   0.000000
  201       72.083028   0.000000
  202       72.083979   0.000000
  203       72.486868   0.000000
  204       72.487351   0.000000
  205       73.159616   0.000000
  206       73.159763   0.000000
  207       73.517657   0.000000
  208       73.518283   0.000000
  209       74.131877   0.000000
  210       74.133295   0.000000
  211       74.227729   0.000000
  212       74.228839   0.000000
  213       76.328071   0.000000
  214       76.328845   0.000000
  215       77.308134   0.000000
  216       77.308853   0.000000
  217       77.469303   0.000000
  218       77.470034   0.000000
  219       77.566910   0.000000
  220       77.568245   0.000000
  221       77.799496   0.000000
  222       77.800304   0.000000
  223       77.934483   0.000000
  224       77.935283   0.000000
  225       79.825947   0.000000
  226       79.826767   0.000000
  227       79.843566   0.000000
  228       79.844152   0.000000
  229       80.019620   0.000000
  230       80.020564   0.000000
  231       80.348266   0.000000
  232       80.348942   0.000000
  233       80.351711   0.000000
  234       80.352484   0.000000
  235       80.451813   0.000000
  236       80.452418   0.000000
  237       81.191474   0.000000
  238       81.191674   0.000000
  239       81.365748   0.000000
  240       81.366519   0.000000
  241       81.577276   0.000000
  242       81.577973   0.000000
  243       82.816529   0.000000
  244       82.818022   0.000000
  245       82.884899   0.000000
  246       82.886309   0.000000
  247       83.694997   0.000000
  248       83.695698   0.000000
  249       84.309012   0.000000
  250       84.309680   0.000000
  251       85.513850   0.000000
  252       85.514179   0.000000
  253       86.061138   0.000000
  254       86.061715   0.000000
  255       86.094969   0.000000
  256       86.095632   0.000000
 
  0.5000000E+00 -0.2305480E-16  0.5551115E-16  0.4629630E-02
    1     -219.516474   1.000000
    2     -219.516442   1.000000
    3     -137.977668   1.000000
    4     -137.977653   1.000000
    5      -90.218999   1.000000
    6      -90.218911   1.000000
    7      -90.213718   1.000000
    8      -90.213618   1.000000
    9      -33.213647   1.000000
   10      -33.213503   1.000000
   11      -33.213093   1.000000
   12      -33.212960   1.000000
   13      -26.138585   1.000000
   14      -26.138309   1.000000
   15      -26.134466   1.000000
   16      -26.133966   1.000000
   17      -26.132320   1.000000
   18      -26.131691   1.000000
   19      -21.281019   1.000000
   20      -21.280355   1.000000
   21       -3.796626   1.000000
   22       -3.795648   1.000000
   23        0.962050   1.000000
   24        0.964202   1.000000
   25        3.172122   1.000000
   26        3.174961   1.000000
   27        6.073887   0.000000
   28        6.074631   0.000000
   29       10.091429   0.000000
   30       10.092119   0.000000
   31       10.450099   0.000000
   32       10.451392   0.000000
   33       10.698618   0.000000
   34       10.699265   0.000000
   35       12.650534   0.000000
   36       12.651034   0.000000
   37       14.490081   0.000000
   38       14.490473   0.000000
   39       14.594283   0.000000
   40       14.595021   0.000000
   41       15.508994   0.000000
   42       15.509649   0.000000
   43       16.391490   0.000000
   44       16.392170   0.000000
   45       16.546606   0.000000
   46       16.548312   0.000000
   47       18.416724   0.000000
   48       18.418253   0.000000
   49       18.675437   0.000000
   50       18.677573   0.000000
   51       18.720949   0.000000
   52       18.722871   0.000000
   53       20.209115   0.000000
   54       20.210469   0.000000
   55       23.282107   0.000000
   56       23.282995   0.000000
   57       23.328896   0.000000
   58       23.329851   0.000000
   59       24.856738   0.000000
   60       24.857372   0.000000
   61       24.884856   0.000000
   62       24.885546   0.000000
   63       25.212879   0.000000
   64       25.213486   0.000000
   65       26.490196   0.000000
   66       26.490956   0.000000
   67       26.668379   0.000000
   68       26.669081   0.000000
   69       27.798089   0.000000
   70       27.798589   0.000000
   71       29.133591   0.000000
   72       29.134441   0.000000
   73       30.118771   0.000000
   74       30.119968   0.000000
   75       30.270352   0.000000
   76       30.270745   0.000000
   77       30.768612   0.000000
   78       30.770125   0.000000
   79       31.465590   0.000000
   80       31.465826   0.000000
   81       31.638081   0.000000
   82       31.639052   0.000000
   83       32.532932   0.000000
   84       32.533713   0.000000
   85       33.270776   0.000000
   86       33.271978   0.000000
   87       33.367270   0.000000
   88       33.368785   0.000000
   89       35.220025   0.000000
   90       35.220224   0.000000
   91       35.758702   0.000000
   92       35.759525   0.000000
   93       38.605518   0.000000
   94       38.606511   0.000000
   95       38.638615   0.000000
   96       38.640102   0.000000
   97       38.835724   0.000000
   98       38.836098   0.000000
   99       39.269201   0.000000
  100       39.270207   0.000000
  101       39.517654   0.000000
  102       39.518313   0.000000
  103       41.145710   0.000000
  104       41.146522   0.000000
  105       42.022024   0.000000
  106       42.022194   0.000000
  107       43.532313   0.000000
  108       43.532669   0.000000
  109       44.603237   0.000000
  110       44.603897   0.000000
  111       45.165925   0.000000
  112       45.166507   0.000000
  113       45.302149   0.000000
  114       45.302846   0.000000
  115       45.575845   0.000000
  116       45.576897   0.000000
  117       46.510601   0.000000
  118       46.511248   0.000000
  119       48.907004   0.000000
  120       48.907736   0.000000
  121       48.938529   0.000000
  122       48.939314   0.000000
  123       49.149132   0.000000
  124       49.149726   0.000000
  125       49.766041   0.000000
  126       49.767154   0.000000
  127       50.140905   0.000000