   1   1   0   0
  0.5789729E+02  0.4342346E-09  0.4342346E-09  0.4342346E-09  0.1000000E-15
  1.000000000000000E-004
  CAR 
 Og_FCC                                  
     47.02201110    -44.58962026  301      2.89574200      1.00000000
    -44.590  0.0000E+00  0.0000E+00
    -44.284  0.0000E+00  0.0000E+00
    -43.979  0.0000E+00  0.0000E+00
    -43.674  0.0000E+00  0.0000E+00
    -43.368  0.0000E+00  0.0000E+00
    -43.063  0.0000E+00  0.0000E+00
    -42.757  0.0000E+00  0.0000E+00
    -42.452  0.0000E+00  0.0000E+00
    -42.147  0.0000E+00  0.0000E+00
    -41.841  0.0000E+00  0.0000E+00
    -41.536  0.0000E+00  0.0000E+00
    -41.231  0.0000E+00  0.0000E+00
    -40.925  0.0000E+00  0.0000E+00
    -40.620  0.0000E+00  0.0000E+00
    -40.314  0.0000E+00  0.4000E+01
    -40.009  0.0000E+00  0.4000E+01
    -39.704  0.0000E+00  0.4000E+01
    -39.398  0.0000E+00  0.4000E+01
    -39.093  0.0000E+00  0.4000E+01
    -38.788  0.0000E+00  0.4000E+01
    -38.482  0.0000E+00  0.4000E+01
    -38.177  0.0000E+00  0.4000E+01
    -37.871  0.0000E+00  0.4000E+01
    -37.566  0.0000E+00  0.4000E+01
    -37.261  0.0000E+00  0.4000E+01
    -36.955  0.0000E+00  0.4000E+01
    -36.650  0.0000E+00  0.4000E+01
    -36.345  0.0000E+00  0.4000E+01
    -36.039  0.0000E+00  0.4000E+01
    -35.734  0.0000E+00  0.4000E+01
    -35.428  0.0000E+00  0.4000E+01
    -35.123  0.0000E+00  0.4000E+01
    -34.818  0.0000E+00  0.4000E+01
    -34.512  0.0000E+00  0.4000E+01
    -34.207  0.0000E+00  0.4000E+01
    -33.902  0.0000E+00  0.4000E+01
    -33.596  0.0000E+00  0.4000E+01
    -33.291  0.0000E+00  0.4000E+01
    -32.985  0.0000E+00  0.4000E+01
    -32.680  0.0000E+00  0.1000E+02
    -32.375  0.0000E+00  0.1000E+02
    -32.069  0.0000E+00  0.1000E+02
    -31.764  0.0000E+00  0.1000E+02
    -31.459  0.0000E+00  0.1000E+02
    -31.153  0.0000E+00  0.1000E+02
    -30.848  0.0000E+00  0.1000E+02
    -30.543  0.0000E+00  0.1000E+02
    -30.237  0.0000E+00  0.1000E+02
    -29.932  0.0000E+00  0.1000E+02
    -29.626  0.0000E+00  0.1000E+02
    -29.321  0.0000E+00  0.1000E+02
    -29.016  0.0000E+00  0.1000E+02
    -28.710  0.0000E+00  0.1000E+02
    -28.405  0.0000E+00  0.1000E+02
    -28.100  0.0000E+00  0.1000E+02
    -27.794  0.0000E+00  0.1000E+02
    -27.489  0.0000E+00  0.1000E+02
    -27.183  0.0000E+00  0.1000E+02
    -26.878  0.0000E+00  0.1000E+02
    -26.573  0.0000E+00  0.1000E+02
    -26.267  0.0000E+00  0.1000E+02
    -25.962  0.0000E+00  0.1000E+02
    -25.657  0.0000E+00  0.1000E+02
    -25.351  0.0000E+00  0.1000E+02
    -25.046  0.0000E+00  0.1000E+02
    -24.740  0.0000E+00  0.1200E+02
    -24.435  0.0000E+00  0.1200E+02
    -24.130  0.0000E+00  0.1200E+02
    -23.824  0.0000E+00  0.1200E+02
    -23.519  0.0000E+00  0.1200E+02
    -23.214  0.0000E+00  0.1200E+02
    -22.908  0.0000E+00  0.1200E+02
    -22.603  0.0000E+00  0.1200E+02
    -22.297  0.0000E+00  0.1200E+02
    -21.992  0.0000E+00  0.1200E+02
    -21.687  0.0000E+00  0.1200E+02
    -21.381  0.0000E+00  0.1200E+02
    -21.076  0.0000E+00  0.1200E+02
    -20.771  0.0000E+00  0.1200E+02
    -20.465  0.0000E+00  0.1200E+02
    -20.160  0.0000E+00  0.1200E+02
    -19.854  0.0000E+00  0.1200E+02
    -19.549  0.0000E+00  0.1200E+02
    -19.244  0.0000E+00  0.1200E+02
    -18.938  0.0000E+00  0.1200E+02
    -18.633  0.0000E+00  0.1200E+02
    -18.328  0.0000E+00  0.1200E+02
    -18.022  0.0000E+00  0.1200E+02
    -17.717  0.0000E+00  0.1200E+02
    -17.412  0.0000E+00  0.1200E+02
    -17.106  0.0000E+00  0.1200E+02
    -16.801  0.0000E+00  0.1200E+02
    -16.495  0.0000E+00  0.1200E+02
    -16.190  0.0000E+00  0.1200E+02
    -15.885  0.0000E+00  0.1200E+02
    -15.579  0.0000E+00  0.1200E+02
    -15.274  0.0000E+00  0.1200E+02
    -14.969  0.0000E+00  0.1200E+02
    -14.663  0.0000E+00  0.1200E+02
    -14.358  0.0000E+00  0.1200E+02
    -14.052  0.0000E+00  0.1200E+02
    -13.747  0.0000E+00  0.1200E+02
    -13.442  0.0000E+00  0.1200E+02
    -13.136  0.0000E+00  0.1200E+02
    -12.831  0.0000E+00  0.1200E+02
    -12.526  0.0000E+00  0.1200E+02
    -12.220  0.0000E+00  0.1200E+02
    -11.915  0.0000E+00  0.1200E+02
    -11.609  0.0000E+00  0.1200E+02
    -11.304  0.0000E+00  0.1200E+02
    -10.999  0.0000E+00  0.1200E+02
    -10.693  0.0000E+00  0.1200E+02
    -10.388  0.0000E+00  0.1200E+02
    -10.083  0.0000E+00  0.1200E+02
     -9.777  0.0000E+00  0.1303E+02
     -9.472  0.0000E+00  0.1397E+02
     -9.166  0.0000E+00  0.1400E+02
     -8.861  0.0000E+00  0.1400E+02
     -8.556  0.0000E+00  0.1400E+02
     -8.250  0.0000E+00  0.1400E+02
     -7.945  0.0000E+00  0.1400E+02
     -7.640  0.0000E+00  0.1400E+02
     -7.334  0.0000E+00  0.1400E+02
     -7.029  0.0000E+00  0.1400E+02
     -6.723  0.0000E+00  0.1400E+02
     -6.418  0.0000E+00  0.1400E+02
     -6.113  0.0000E+00  0.1400E+02
     -5.807  0.0000E+00  0.1400E+02
     -5.502  0.0000E+00  0.1400E+02
     -5.197  0.0000E+00  0.1400E+02
     -4.891  0.0000E+00  0.1400E+02
     -4.586  0.0000E+00  0.1400E+02
     -4.281  0.0000E+00  0.1400E+02
     -3.975  0.0000E+00  0.1400E+02
     -3.670  0.0000E+00  0.1400E+02
     -3.364  0.0000E+00  0.1400E+02
     -3.059  0.0000E+00  0.1400E+02
     -2.754  0.0000E+00  0.1400E+02
     -2.448  0.0000E+00  0.1400E+02
     -2.143  0.0000E+00  0.1400E+02
     -1.838  0.0000E+00  0.1400E+02
     -1.532  0.0000E+00  0.1400E+02
     -1.227  0.0000E+00  0.1400E+02
     -0.921  0.0000E+00  0.1400E+02
     -0.616  0.0000E+00  0.1422E+02
     -0.311  0.0000E+00  0.1553E+02
     -0.005  0.0000E+00  0.1553E+02
      0.300  0.0000E+00  0.1616E+02
      0.605  0.0000E+00  0.1616E+02
      0.911  0.0000E+00  0.1616E+02
      1.216  0.0000E+00  0.1700E+02
      1.522  0.0000E+00  0.1738E+02
      1.827  0.0000E+00  0.1756E+02
      2.132  0.0000E+00  0.1756E+02
      2.438  0.0000E+00  0.1769E+02
      2.743  0.0000E+00  0.1794E+02
      3.048  0.0000E+00  0.1800E+02
      3.354  0.0000E+00  0.1800E+02
      3.659  0.0000E+00  0.1803E+02
      3.965  0.0000E+00  0.1803E+02
      4.270  0.0000E+00  0.1803E+02
      4.575  0.0000E+00  0.1803E+02
      4.881  0.0000E+00  0.1803E+02
      5.186  0.0000E+00  0.1803E+02
      5.491  0.0000E+00  0.1803E+02
      5.797  0.0000E+00  0.1803E+02
      6.102  0.0000E+00  0.1828E+02
      6.408  0.0000E+00  0.1850E+02
      6.713  0.0000E+00  0.1850E+02
      7.018  0.0000E+00  0.1869E+02
      7.324  0.0000E+00  0.1869E+02
      7.629  0.0000E+00  0.1944E+02
      7.934  0.0000E+00  0.2000E+02
      8.240  0.0000E+00  0.2009E+02
      8.545  0.0000E+00  0.2009E+02
      8.850  0.0000E+00  0.2009E+02
      9.156  0.0000E+00  0.2141E+02
      9.461  0.0000E+00  0.2141E+02
      9.767  0.0000E+00  0.2141E+02
     10.072  0.0000E+00  0.2141E+02
     10.377  0.0000E+00  0.2222E+02
     10.683  0.0000E+00  0.2334E+02
     10.988  0.0000E+00  0.2372E+02
     11.293  0.0000E+00  0.2400E+02
     11.599  0.0000E+00  0.2434E+02
     11.904  0.0000E+00  0.2462E+02
     12.210  0.0000E+00  0.2500E+02
     12.515  0.0000E+00  0.2619E+02
     12.820  0.0000E+00  0.2631E+02
     13.126  0.0000E+00  0.2631E+02
     13.431  0.0000E+00  0.2694E+02
     13.736  0.0000E+00  0.2738E+02
     14.042  0.0000E+00  0.2738E+02
     14.347  0.0000E+00  0.2816E+02
     14.653  0.0000E+00  0.2841E+02
     14.958  0.0000E+00  0.2884E+02
     15.263  0.0000E+00  0.2884E+02
     15.569  0.0000E+00  0.2884E+02
     15.874  0.0000E+00  0.2978E+02
     16.179  0.0000E+00  0.3047E+02
     16.485  0.0000E+00  0.3228E+02
     16.790  0.0000E+00  0.3278E+02
     17.096  0.0000E+00  0.3297E+02
     17.401  0.0000E+00  0.3325E+02
     17.706  0.0000E+00  0.3344E+02
     18.012  0.0000E+00  0.3444E+02
     18.317  0.0000E+00  0.3444E+02
     18.622  0.2324E-09  0.3563E+02
     18.928  0.0000E+00  0.3747E+02
     19.233  0.0000E+00  0.3772E+02
     19.539  0.0000E+00  0.3853E+02
     19.844  0.0000E+00  0.3934E+02
     20.149  0.0000E+00  0.4103E+02
     20.455  0.2368E+01  0.4344E+02
     20.760  0.0000E+00  0.4456E+02
     21.065  0.0000E+00  0.4550E+02
     21.371  0.0000E+00  0.4588E+02
     21.676  0.0000E+00  0.4606E+02
     21.981  0.0000E+00  0.4756E+02
     22.287  0.0000E+00  0.4766E+02
     22.592  0.0000E+00  0.4784E+02
     22.898  0.0000E+00  0.4794E+02
     23.203  0.0000E+00  0.4947E+02
     23.508  0.0000E+00  0.4988E+02
     23.814  0.0000E+00  0.4988E+02
     24.119  0.0000E+00  0.5038E+02
     24.424  0.0000E+00  0.5138E+02
     24.730  0.0000E+00  0.5222E+02
     25.035  0.9439E-03  0.5334E+02
     25.341  0.7163E+00  0.5459E+02
     25.646  0.0000E+00  0.5647E+02
     25.951  0.0000E+00  0.5647E+02
     26.257  0.1023E+00  0.5691E+02
     26.562  0.0000E+00  0.5694E+02
     26.867  0.0000E+00  0.5694E+02
     27.173  0.0000E+00  0.5816E+02
     27.478  0.0000E+00  0.5891E+02
     27.784  0.5117E-01  0.5988E+02
     28.089  0.0000E+00  0.6125E+02
     28.394  0.0000E+00  0.6212E+02
     28.700  0.0000E+00  0.6212E+02
     29.005  0.0000E+00  0.6212E+02
     29.310  0.0000E+00  0.6288E+02
     29.616  0.0000E+00  0.6316E+02
     29.921  0.0000E+00  0.6362E+02
     30.227  0.0000E+00  0.6366E+02
     30.532  0.0000E+00  0.6491E+02
     30.837  0.0000E+00  0.6538E+02
     31.143  0.0000E+00  0.6572E+02
     31.448  0.0000E+00  0.6709E+02
     31.753  0.0000E+00  0.6847E+02
     32.059  0.0000E+00  0.6875E+02
     32.364  0.0000E+00  0.7006E+02
     32.670  0.0000E+00  0.7094E+02
     32.975  0.0000E+00  0.7178E+02
     33.280  0.0000E+00  0.7191E+02
     33.586  0.0000E+00  0.7303E+02
     33.891  0.0000E+00  0.7375E+02
     34.196  0.1779E-05  0.7438E+02
     34.502  0.1542E+00  0.7552E+02
     34.807  0.2958E+00  0.7603E+02
     35.112  0.3696E-13  0.7706E+02
     35.418  0.1228E+01  0.7875E+02
     35.723  0.0000E+00  0.7900E+02
     36.029  0.0000E+00  0.8025E+02
     36.334  0.7587E+00  0.8067E+02
     36.639  0.0000E+00  0.8103E+02
     36.945  0.0000E+00  0.8188E+02
     37.250  0.0000E+00  0.8262E+02
     37.555  0.0000E+00  0.8344E+02
     37.861  0.0000E+00  0.8419E+02
     38.166  0.0000E+00  0.8503E+02
     38.472  0.0000E+00  0.8541E+02
     38.777  0.0000E+00  0.8600E+02
     39.082  0.0000E+00  0.8675E+02
     39.388  0.0000E+00  0.8744E+02
     39.693  0.0000E+00  0.8794E+02
     39.998  0.0000E+00  0.8872E+02
     40.304  0.0000E+00  0.8969E+02
     40.609  0.0000E+00  0.9075E+02
     40.915  0.0000E+00  0.9125E+02
     41.220  0.0000E+00  0.9244E+02
     41.525  0.0000E+00  0.9328E+02
     41.831  0.0000E+00  0.9347E+02
     42.136  0.0000E+00  0.9434E+02
     42.441  0.0000E+00  0.9547E+02
     42.747  0.0000E+00  0.9597E+02
     43.052  0.0000E+00  0.9600E+02
     43.358  0.0000E+00  0.9600E+02
     43.663  0.0000E+00  0.9600E+02
     43.968  0.0000E+00  0.9600E+02
     44.274  0.0000E+00  0.9600E+02
     44.579  0.0000E+00  0.9600E+02
     44.884  0.0000E+00  0.9600E+02
     45.190  0.0000E+00  0.9600E+02
     45.495  0.0000E+00  0.9600E+02
     45.801  0.0000E+00  0.9600E+02
     46.106  0.0000E+00  0.9600E+02
     46.411  0.0000E+00  0.9600E+02
     46.717  0.0000E+00  0.9600E+02
     47.022  0.0000E+00  0.9600E+02
