 vasp.5.4.4.18Apr17-6-g9f103f2a35 (build Jul 09 2018 16:43:14) complex          
  
 executed on             LinuxIFC date 2018.11.30  09:49:12
 running on   64 total cores
 distrk:  each k-point on    4 cores,   16 groups
 distr:  one band on NCORES_PER_BAND=   1 cores,    4 groups


--------------------------------------------------------------------------------------------------------


 INCAR:
 POTCAR:    PAW_PBE Rn_d_GW 14Apr2014             

 ----------------------------------------------------------------------------- 
|                                                                             |
|           W    W    AA    RRRRR   N    N  II  N    N   GGGG   !!!           |
|           W    W   A  A   R    R  NN   N  II  NN   N  G    G  !!!           |
|           W    W  A    A  R    R  N N  N  II  N N  N  G       !!!           |
|           W WW W  AAAAAA  RRRRR   N  N N  II  N  N N  G  GGG   !            |
|           WW  WW  A    A  R   R   N   NN  II  N   NN  G    G                |
|           W    W  A    A  R    R  N    N  II  N    N   GGGG   !!!           |
|                                                                             |
|      For optimal performance we recommend to set                            |
|        NCORE= 4 - approx SQRT( number of cores)                             |
|      NCORE specifies how many cores store one orbital (NPAR=cpu/NCORE).     |
|      This setting can  greatly improve the performance of VASP for DFT.     |
|      The default,   NCORE=1            might be grossly inefficient         |
|      on modern multi-core architectures or massively parallel machines.     |
|      Do your own testing !!!!                                               |
|      Unfortunately you need to use the default for GW and RPA calculations. |
|      (for HF NCORE is supported but not extensively tested yet)             |
|                                                                             |
 ----------------------------------------------------------------------------- 


 ----------------------------------------------------------------------------- 
|                                                                             |
|           W    W    AA    RRRRR   N    N  II  N    N   GGGG   !!!           |
|           W    W   A  A   R    R  NN   N  II  NN   N  G    G  !!!           |
|           W    W  A    A  R    R  N N  N  II  N N  N  G       !!!           |
|           W WW W  AAAAAA  RRRRR   N  N N  II  N  N N  G  GGG   !            |
|           WW  WW  A    A  R   R   N   NN  II  N   NN  G    G                |
|           W    W  A    A  R    R  N    N  II  N    N   GGGG   !!!           |
|                                                                             |
|      You have enabled k-point parallelism (KPAR>1).                         |
|      This developmental code was originally  written by Paul Kent at ORNL,  |
|      and carefully double checked in Vienna.                                |
|      GW as well as linear response parallelism added by Martijn Marsman     |
|      and Georg Kresse.                                                      |
|      Carefully verify results versus KPAR=1.                                |
|      Report problems to Paul Kent and Vienna.                               |
|                                                                             |
 ----------------------------------------------------------------------------- 

 POTCAR:    PAW_PBE Rn_d_GW 14Apr2014             
  local pseudopotential read in
  partial core-charges read in
  partial kinetic energy density read in
  kinetic energy density of atom read in
  atomic valenz-charges read in
  non local Contribution for L=           2  read in
    real space projection operators read in
  non local Contribution for L=           2  read in
    real space projection operators read in
  non local Contribution for L=           2  read in
    real space projection operators read in
  non local Contribution for L=           0  read in
    real space projection operators read in
  non local Contribution for L=           0  read in
    real space projection operators read in
  non local Contribution for L=           1  read in
    real space projection operators read in
  non local Contribution for L=           1  read in
    real space projection operators read in
  non local Contribution for L=           3  read in
    real space projection operators read in
  non local Contribution for L=           3  read in
    real space projection operators read in
    PAW grid and wavefunctions read in
 
   number of l-projection  operators is LMAX  =           9
   number of lm-projection operators is LMMAX =          37
 
  PAW_PBE Rn_d_GW 14Apr2014             :
 energy of atom  1       EATOM=-3030.7130
 kinetic energy error for atom=    0.0889 (will be added to EATOM!!)
 
 
 POSCAR: Rn_FCC                                  
  positions in direct lattice
  velocities in cartesian coordinates

 METAGGA = SCAN     LMAXTAU =  0    LMIXTAU =  F

 exchange correlation table for  LEXCH =        8
   RHO(1)=    0.500       N(1)  =     2000
   RHO(2)=  100.500       N(2)  =     4000
 


--------------------------------------------------------------------------------------------------------


 ion  position               nearest neighbor table
   1  0.000  0.000  0.000-
 

IMPORTANT INFORMATION: All symmetrisations will be switched off!
NOSYMM: (Re-)initialisation of all symmetry stuff for point group C_1.

 
 
 KPOINTS: k-points                                

Automatic generation of k-mesh.
Space group operators:
 irot       det(A)        alpha          n_x          n_y          n_z        tau_x        tau_y        tau_z
    1     1.000000     0.000000     1.000000     0.000000     0.000000     0.000000     0.000000     0.000000
 
 Subroutine IBZKPT returns following result:
 ===========================================
 
 Found    216 irreducible k-points:
 
 Following reciprocal coordinates:
            Coordinates               Weight
  0.000000  0.000000  0.000000      1.000000
  0.166667  0.000000  0.000000      1.000000
  0.333333  0.000000  0.000000      1.000000
  0.500000  0.000000  0.000000      1.000000
 -0.333333 -0.000000 -0.000000      1.000000
 -0.166667 -0.000000  0.000000      1.000000
  0.000000  0.166667  0.000000      1.000000
  0.166667  0.166667  0.000000      1.000000
  0.333333  0.166667  0.000000      1.000000
  0.500000  0.166667  0.000000      1.000000
 -0.333333  0.166667  0.000000      1.000000
 -0.166667  0.166667  0.000000      1.000000
  0.000000  0.333333  0.000000      1.000000
  0.166667  0.333333  0.000000      1.000000
  0.333333  0.333333  0.000000      1.000000
  0.500000  0.333333  0.000000      1.000000
 -0.333333  0.333333 -0.000000      1.000000
 -0.166667  0.333333 -0.000000      1.000000
  0.000000  0.500000  0.000000      1.000000
  0.166667  0.500000  0.000000      1.000000
  0.333333  0.500000  0.000000      1.000000
  0.500000  0.500000 -0.000000      1.000000
 -0.333333  0.500000 -0.000000      1.000000
 -0.166667  0.500000  0.000000      1.000000
 -0.000000 -0.333333  0.000000      1.000000
  0.166667 -0.333333  0.000000      1.000000
  0.333333 -0.333333  0.000000      1.000000
  0.500000 -0.333333 -0.000000      1.000000
 -0.333333 -0.333333 -0.000000      1.000000
 -0.166667 -0.333333  0.000000      1.000000
 -0.000000 -0.166667 -0.000000      1.000000
  0.166667 -0.166667  0.000000      1.000000
  0.333333 -0.166667  0.000000      1.000000
  0.500000 -0.166667  0.000000      1.000000
 -0.333333 -0.166667 -0.000000      1.000000
 -0.166667 -0.166667  0.000000      1.000000
 -0.000000 -0.000000  0.166667      1.000000
  0.166667  0.000000  0.166667      1.000000
  0.333333  0.000000  0.166667      1.000000
  0.500000  0.000000  0.166667      1.000000
 -0.333333 -0.000000  0.166667      1.000000
 -0.166667 -0.000000  0.166667      1.000000
  0.000000  0.166667  0.166667      1.000000
  0.166667  0.166667  0.166667      1.000000
  0.333333  0.166667  0.166667      1.000000
  0.500000  0.166667  0.166667      1.000000
 -0.333333  0.166667  0.166667      1.000000
 -0.166667  0.166667  0.166667      1.000000
  0.000000  0.333333  0.166667      1.000000
  0.166667  0.333333  0.166667      1.000000
  0.333333  0.333333  0.166667      1.000000
  0.500000  0.333333  0.166667      1.000000
 -0.333333  0.333333  0.166667      1.000000
 -0.166667  0.333333  0.166667      1.000000
  0.000000  0.500000  0.166667      1.000000
  0.166667  0.500000  0.166667      1.000000
  0.333333  0.500000  0.166667      1.000000
  0.500000  0.500000  0.166667      1.000000
 -0.333333  0.500000  0.166667      1.000000
 -0.166667  0.500000  0.166667      1.000000
 -0.000000 -0.333333  0.166667      1.000000
  0.166667 -0.333333  0.166667      1.000000
  0.333333 -0.333333  0.166667      1.000000
  0.500000 -0.333333  0.166667      1.000000
 -0.333333 -0.333333  0.166667      1.000000
 -0.166667 -0.333333  0.166667      1.000000
 -0.000000 -0.166667  0.166667      1.000000
  0.166667 -0.166667  0.166667      1.000000
  0.333333 -0.166667  0.166667      1.000000
  0.500000 -0.166667  0.166667      1.000000
 -0.333333 -0.166667  0.166667      1.000000
 -0.166667 -0.166667  0.166667      1.000000
  0.000000 -0.000000  0.333333      1.000000
  0.166667  0.000000  0.333333      1.000000
  0.333333  0.000000  0.333333      1.000000
  0.500000  0.000000  0.333333      1.000000
 -0.333333 -0.000000  0.333333      1.000000
 -0.166667 -0.000000  0.333333      1.000000
  0.000000  0.166667  0.333333      1.000000
  0.166667  0.166667  0.333333      1.000000
  0.333333  0.166667  0.333333      1.000000
  0.500000  0.166667  0.333333      1.000000
 -0.333333  0.166667  0.333333      1.000000
 -0.166667  0.166667  0.333333      1.000000
 -0.000000  0.333333  0.333333      1.000000
  0.166667  0.333333  0.333333      1.000000
  0.333333  0.333333  0.333333      1.000000
  0.500000  0.333333  0.333333      1.000000
 -0.333333  0.333333  0.333333      1.000000
 -0.166667  0.333333  0.333333      1.000000
  0.000000  0.500000  0.333333      1.000000
  0.166667  0.500000  0.333333      1.000000
  0.333333  0.500000  0.333333      1.000000
  0.500000  0.500000  0.333333      1.000000
 -0.333333  0.500000  0.333333      1.000000
 -0.166667  0.500000  0.333333      1.000000
 -0.000000 -0.333333  0.333333      1.000000
  0.166667 -0.333333  0.333333      1.000000
  0.333333 -0.333333  0.333333      1.000000
  0.500000 -0.333333  0.333333      1.000000
 -0.333333 -0.333333  0.333333      1.000000
 -0.166667 -0.333333  0.333333      1.000000
 -0.000000 -0.166667  0.333333      1.000000
  0.166667 -0.166667  0.333333      1.000000
  0.333333 -0.166667  0.333333      1.000000
  0.500000 -0.166667  0.333333      1.000000
 -0.333333 -0.166667  0.333333      1.000000
 -0.166667 -0.166667  0.333333      1.000000
 -0.000000 -0.000000  0.500000      1.000000
  0.166667  0.000000  0.500000      1.000000
  0.333333  0.000000  0.500000      1.000000
  0.500000  0.000000  0.500000      1.000000
 -0.333333 -0.000000  0.500000      1.000000
 -0.166667 -0.000000  0.500000      1.000000
 -0.000000  0.166667  0.500000      1.000000
  0.166667  0.166667  0.500000      1.000000
  0.333333  0.166667  0.500000      1.000000
  0.500000  0.166667  0.500000      1.000000
 -0.333333  0.166667  0.500000      1.000000
 -0.166667  0.166667  0.500000      1.000000
 -0.000000  0.333333  0.500000      1.000000
  0.166667  0.333333  0.500000      1.000000
  0.333333  0.333333  0.500000      1.000000
  0.500000  0.333333  0.500000      1.000000
 -0.333333  0.333333  0.500000      1.000000
 -0.166667  0.333333  0.500000      1.000000
  0.000000  0.500000  0.500000      1.000000
  0.166667  0.500000  0.500000      1.000000
  0.333333  0.500000  0.500000      1.000000
  0.500000  0.500000  0.500000      1.000000
 -0.333333  0.500000  0.500000      1.000000
 -0.166667  0.500000  0.500000      1.000000
 -0.000000 -0.333333  0.500000      1.000000
  0.166667 -0.333333  0.500000      1.000000
  0.333333 -0.333333  0.500000      1.000000
  0.500000 -0.333333  0.500000      1.000000
 -0.333333 -0.333333  0.500000      1.000000
 -0.166667 -0.333333  0.500000      1.000000
 -0.000000 -0.166667  0.500000      1.000000
  0.166667 -0.166667  0.500000      1.000000
  0.333333 -0.166667  0.500000      1.000000
  0.500000 -0.166667  0.500000      1.000000
 -0.333333 -0.166667  0.500000      1.000000
 -0.166667 -0.166667  0.500000      1.000000
  0.000000  0.000000 -0.333333      1.000000
  0.166667  0.000000 -0.333333      1.000000
  0.333333  0.000000 -0.333333      1.000000
  0.500000  0.000000 -0.333333      1.000000
 -0.333333 -0.000000 -0.333333      1.000000
 -0.166667 -0.000000 -0.333333      1.000000
  0.000000  0.166667 -0.333333      1.000000
  0.166667  0.166667 -0.333333      1.000000
  0.333333  0.166667 -0.333333      1.000000
  0.500000  0.166667 -0.333333      1.000000
 -0.333333  0.166667 -0.333333      1.000000
 -0.166667  0.166667 -0.333333      1.000000
  0.000000  0.333333 -0.333333      1.000000
  0.166667  0.333333 -0.333333      1.000000
  0.333333  0.333333 -0.333333      1.000000
  0.500000  0.333333 -0.333333      1.000000
 -0.333333  0.333333 -0.333333      1.000000
 -0.166667  0.333333 -0.333333      1.000000
  0.000000  0.500000 -0.333333      1.000000
  0.166667  0.500000 -0.333333      1.000000
  0.333333  0.500000 -0.333333      1.000000
  0.500000  0.500000 -0.333333      1.000000
 -0.333333  0.500000 -0.333333      1.000000
 -0.166667  0.500000 -0.333333      1.000000
  0.000000 -0.333333 -0.333333      1.000000
  0.166667 -0.333333 -0.333333      1.000000
  0.333333 -0.333333 -0.333333      1.000000
  0.500000 -0.333333 -0.333333      1.000000
 -0.333333 -0.333333 -0.333333      1.000000
 -0.166667 -0.333333 -0.333333      1.000000
  0.000000 -0.166667 -0.333333      1.000000
  0.166667 -0.166667 -0.333333      1.000000
  0.333333 -0.166667 -0.333333      1.000000
  0.500000 -0.166667 -0.333333      1.000000
 -0.333333 -0.166667 -0.333333      1.000000
 -0.166667 -0.166667 -0.333333      1.000000
  0.000000  0.000000 -0.166667      1.000000
  0.166667  0.000000 -0.166667      1.000000
  0.333333  0.000000 -0.166667      1.000000
  0.500000  0.000000 -0.166667      1.000000
 -0.333333 -0.000000 -0.166667      1.000000
 -0.166667  0.000000 -0.166667      1.000000
  0.000000  0.166667 -0.166667      1.000000
  0.166667  0.166667 -0.166667      1.000000
  0.333333  0.166667 -0.166667      1.000000
  0.500000  0.166667 -0.166667      1.000000
 -0.333333  0.166667 -0.166667      1.000000
 -0.166667  0.166667 -0.166667      1.000000
  0.000000  0.333333 -0.166667      1.000000
  0.166667  0.333333 -0.166667      1.000000
  0.333333  0.333333 -0.166667      1.000000
  0.500000  0.333333 -0.166667      1.000000
 -0.333333  0.333333 -0.166667      1.000000
 -0.166667  0.333333 -0.166667      1.000000
  0.000000  0.500000 -0.166667      1.000000
  0.166667  0.500000 -0.166667      1.000000
  0.333333  0.500000 -0.166667      1.000000
  0.500000  0.500000 -0.166667      1.000000
 -0.333333  0.500000 -0.166667      1.000000
 -0.166667  0.500000 -0.166667      1.000000
 -0.000000 -0.333333 -0.166667      1.000000
  0.166667 -0.333333 -0.166667      1.000000
  0.333333 -0.333333 -0.166667      1.000000
  0.500000 -0.333333 -0.166667      1.000000
 -0.333333 -0.333333 -0.166667      1.000000
 -0.166667 -0.333333 -0.166667      1.000000
  0.000000 -0.166667 -0.166667      1.000000
  0.166667 -0.166667 -0.166667      1.000000
  0.333333 -0.166667 -0.166667      1.000000
  0.500000 -0.166667 -0.166667      1.000000
 -0.333333 -0.166667 -0.166667      1.000000
 -0.166667 -0.166667 -0.166667      1.000000
 
 Following cartesian coordinates:
            Coordinates               Weight
  0.000000  0.000000  0.000000      1.000000
  0.036869 -0.021286 -0.015052      1.000000
  0.073737 -0.042572 -0.030103      1.000000
  0.110606 -0.063858 -0.045155      1.000000
 -0.073737  0.042572  0.030103      1.000000
 -0.036869  0.021286  0.015052      1.000000
  0.000000  0.042572 -0.015052      1.000000
  0.036869  0.021286 -0.030103      1.000000
  0.073737  0.000000 -0.045155      1.000000
  0.110606 -0.021286 -0.060206      1.000000
 -0.073737  0.085144  0.015052      1.000000
 -0.036869  0.063858  0.000000      1.000000
  0.000000  0.085144 -0.030103      1.000000
  0.036869  0.063858 -0.045155      1.000000
  0.073737  0.042572 -0.060206      1.000000
  0.110606  0.021286 -0.075258      1.000000
 -0.073737  0.127716  0.000000      1.000000
 -0.036869  0.106430 -0.015052      1.000000
  0.000000  0.127716 -0.045155      1.000000
  0.036869  0.106430 -0.060206      1.000000
  0.073737  0.085144 -0.075258      1.000000
  0.110606  0.063858 -0.090309      1.000000
 -0.073737  0.170289 -0.015052      1.000000
 -0.036869  0.149002 -0.030103      1.000000
 -0.000000 -0.085144  0.030103      1.000000
  0.036869 -0.106430  0.015052      1.000000
  0.073737 -0.127716 -0.000000      1.000000
  0.110606 -0.149002 -0.015052      1.000000
 -0.073737 -0.042572  0.060206      1.000000
 -0.036869 -0.063858  0.045155      1.000000
 -0.000000 -0.042572  0.015052      1.000000
  0.036869 -0.063858 -0.000000      1.000000
  0.073737 -0.085144 -0.015052      1.000000
  0.110606 -0.106430 -0.030103      1.000000
 -0.073737  0.000000  0.045155      1.000000
 -0.036869 -0.021286  0.030103      1.000000
 -0.000000  0.000000  0.045155      1.000000
  0.036869 -0.021286  0.030103      1.000000
  0.073737 -0.042572  0.015052      1.000000
  0.110606 -0.063858 -0.000000      1.000000
 -0.073737  0.042572  0.075258      1.000000
 -0.036869  0.021286  0.060206      1.000000
 -0.000000  0.042572  0.030103      1.000000
  0.036869  0.021286  0.015052      1.000000
  0.073737  0.000000  0.000000      1.000000
  0.110606 -0.021286 -0.015052      1.000000
 -0.073737  0.085144  0.060206      1.000000
 -0.036869  0.063858  0.045155      1.000000
 -0.000000  0.085144  0.015052      1.000000
  0.036869  0.063858  0.000000      1.000000
  0.073737  0.042572 -0.015052      1.000000
  0.110606  0.021286 -0.030103      1.000000
 -0.073737  0.127716  0.045155      1.000000
 -0.036869  0.106430  0.030103      1.000000
 -0.000000  0.127716  0.000000      1.000000
  0.036869  0.106430 -0.015052      1.000000
  0.073737  0.085144 -0.030103      1.000000
  0.110606  0.063858 -0.045155      1.000000
 -0.073737  0.170289  0.030103      1.000000
 -0.036869  0.149002  0.015052      1.000000
 -0.000000 -0.085144  0.075258      1.000000
  0.036869 -0.106430  0.060206      1.000000
  0.073737 -0.127716  0.045155      1.000000
  0.110606 -0.149002  0.030103      1.000000
 -0.073737 -0.042572  0.105361      1.000000
 -0.036869 -0.063858  0.090309      1.000000
 -0.000000 -0.042572  0.060206      1.000000
  0.036869 -0.063858  0.045155      1.000000
  0.073737 -0.085144  0.030103      1.000000
  0.110606 -0.106430  0.015052      1.000000
 -0.073737  0.000000  0.090309      1.000000
 -0.036869 -0.021286  0.075258      1.000000
 -0.000000  0.000000  0.090309      1.000000
  0.036869 -0.021286  0.075258      1.000000
  0.073737 -0.042572  0.060206      1.000000
  0.110606 -0.063858  0.045155      1.000000
 -0.073737  0.042572  0.120412      1.000000
 -0.036869  0.021286  0.105361      1.000000
 -0.000000  0.042572  0.075258      1.000000
  0.036869  0.021286  0.060206      1.000000
  0.073737  0.000000  0.045155      1.000000
  0.110606 -0.021286  0.030103      1.000000
 -0.073737  0.085144  0.105361      1.000000
 -0.036869  0.063858  0.090309      1.000000
 -0.000000  0.085144  0.060206      1.000000
  0.036869  0.063858  0.045155      1.000000
  0.073737  0.042572  0.030103      1.000000
  0.110606  0.021286  0.015052      1.000000
 -0.073737  0.127716  0.090309      1.000000
 -0.036869  0.106430  0.075258      1.000000
 -0.000000  0.127716  0.045155      1.000000
  0.036869  0.106430  0.030103      1.000000
  0.073737  0.085144  0.015052      1.000000
  0.110606  0.063858  0.000000      1.000000
 -0.073737  0.170289  0.075258      1.000000
 -0.036869  0.149002  0.060206      1.000000
 -0.000000 -0.085144  0.120412      1.000000
  0.036869 -0.106430  0.105361      1.000000
  0.073737 -0.127716  0.090309      1.000000
  0.110606 -0.149002  0.075258      1.000000
 -0.073737 -0.042572  0.150515      1.000000
 -0.036869 -0.063858  0.135464      1.000000
 -0.000000 -0.042572  0.105361      1.000000
  0.036869 -0.063858  0.090309      1.000000
  0.073737 -0.085144  0.075258      1.000000
  0.110606 -0.106430  0.060206      1.000000
 -0.073737  0.000000  0.135464      1.000000
 -0.036869 -0.021286  0.120412      1.000000
 -0.000000  0.000000  0.135464      1.000000
  0.036869 -0.021286  0.120412      1.000000
  0.073737 -0.042572  0.105361      1.000000
  0.110606 -0.063858  0.090309      1.000000
 -0.073737  0.042572  0.165567      1.000000
 -0.036869  0.021286  0.150515      1.000000
 -0.000000  0.042572  0.120412      1.000000
  0.036869  0.021286  0.105361      1.000000
  0.073737  0.000000  0.090309      1.000000
  0.110606 -0.021286  0.075258      1.000000
 -0.073737  0.085144  0.150515      1.000000
 -0.036869  0.063858  0.135464      1.000000
 -0.000000  0.085144  0.105361      1.000000
  0.036869  0.063858  0.090309      1.000000
  0.073737  0.042572  0.075258      1.000000
  0.110606  0.021286  0.060206      1.000000
 -0.073737  0.127716  0.135464      1.000000
 -0.036869  0.106430  0.120412      1.000000
 -0.000000  0.127716  0.090309      1.000000
  0.036869  0.106430  0.075258      1.000000
  0.073737  0.085144  0.060206      1.000000
  0.110606  0.063858  0.045155      1.000000
 -0.073737  0.170289  0.120412      1.000000
 -0.036869  0.149002  0.105361      1.000000
 -0.000000 -0.085144  0.165567      1.000000
  0.036869 -0.106430  0.150515      1.000000
  0.073737 -0.127716  0.135464      1.000000
  0.110606 -0.149002  0.120412      1.000000
 -0.073737 -0.042572  0.195670      1.000000
 -0.036869 -0.063858  0.180618      1.000000
 -0.000000 -0.042572  0.150515      1.000000
  0.036869 -0.063858  0.135464      1.000000
  0.073737 -0.085144  0.120412      1.000000
  0.110606 -0.106430  0.105361      1.000000
 -0.073737  0.000000  0.180618      1.000000
 -0.036869 -0.021286  0.165567      1.000000
  0.000000 -0.000000 -0.090309      1.000000
  0.036869 -0.021286 -0.105361      1.000000
  0.073737 -0.042572 -0.120412      1.000000
  0.110606 -0.063858 -0.135464      1.000000
 -0.073737  0.042572 -0.060206      1.000000
 -0.036869  0.021286 -0.075258      1.000000
  0.000000  0.042572 -0.105361      1.000000
  0.036869  0.021286 -0.120412      1.000000
  0.073737  0.000000 -0.135464      1.000000
  0.110606 -0.021286 -0.150515      1.000000
 -0.073737  0.085144 -0.075258      1.000000
 -0.036869  0.063858 -0.090309      1.000000
  0.000000  0.085144 -0.120412      1.000000
  0.036869  0.063858 -0.135464      1.000000
  0.073737  0.042572 -0.150515      1.000000
  0.110606  0.021286 -0.165567      1.000000
 -0.073737  0.127716 -0.090309      1.000000
 -0.036869  0.106430 -0.105361      1.000000
  0.000000  0.127716 -0.135464      1.000000
  0.036869  0.106430 -0.150515      1.000000
  0.073737  0.085144 -0.165567      1.000000
  0.110606  0.063858 -0.180618      1.000000
 -0.073737  0.170289 -0.105361      1.000000
 -0.036869  0.149002 -0.120412      1.000000
  0.000000 -0.085144 -0.060206      1.000000
  0.036869 -0.106430 -0.075258      1.000000
  0.073737 -0.127716 -0.090309      1.000000
  0.110606 -0.149002 -0.105361      1.000000
 -0.073737 -0.042572 -0.030103      1.000000
 -0.036869 -0.063858 -0.045155      1.000000
  0.000000 -0.042572 -0.075258      1.000000
  0.036869 -0.063858 -0.090309      1.000000
  0.073737 -0.085144 -0.105361      1.000000
  0.110606 -0.106430 -0.120412      1.000000
 -0.073737  0.000000 -0.045155      1.000000
 -0.036869 -0.021286 -0.060206      1.000000
  0.000000 -0.000000 -0.045155      1.000000
  0.036869 -0.021286 -0.060206      1.000000
  0.073737 -0.042572 -0.075258      1.000000
  0.110606 -0.063858 -0.090309      1.000000
 -0.073737  0.042572 -0.015052      1.000000
 -0.036869  0.021286 -0.030103      1.000000
  0.000000  0.042572 -0.060206      1.000000
  0.036869  0.021286 -0.075258      1.000000
  0.073737  0.000000 -0.090309      1.000000
  0.110606 -0.021286 -0.105361      1.000000
 -0.073737  0.085144 -0.030103      1.000000
 -0.036869  0.063858 -0.045155      1.000000
  0.000000  0.085144 -0.075258      1.000000
  0.036869  0.063858 -0.090309      1.000000
  0.073737  0.042572 -0.105361      1.000000
  0.110606  0.021286 -0.120412      1.000000
 -0.073737  0.127716 -0.045155      1.000000
 -0.036869  0.106430 -0.060206      1.000000
  0.000000  0.127716 -0.090309      1.000000
  0.036869  0.106430 -0.105361      1.000000
  0.073737  0.085144 -0.120412      1.000000
  0.110606  0.063858 -0.135464      1.000000
 -0.073737  0.170289 -0.060206      1.000000
 -0.036869  0.149002 -0.075258      1.000000
  0.000000 -0.085144 -0.015052      1.000000
  0.036869 -0.106430 -0.030103      1.000000
  0.073737 -0.127716 -0.045155      1.000000
  0.110606 -0.149002 -0.060206      1.000000
 -0.073737 -0.042572  0.015052      1.000000
 -0.036869 -0.063858 -0.000000      1.000000
  0.000000 -0.042572 -0.030103      1.000000
  0.036869 -0.063858 -0.045155      1.000000
  0.073737 -0.085144 -0.060206      1.000000
  0.110606 -0.106430 -0.075258      1.000000
 -0.073737  0.000000  0.000000      1.000000
 -0.036869 -0.021286 -0.015052      1.000000
 
 
 Subroutine IBZKPT_HF returns following result:
 ==============================================
 
 Found    216 k-points in 1st BZ
 the following    216 k-points will be used (e.g. in the exchange kernel)
 Following reciprocal coordinates:   # in IRBZ
  0.000000  0.000000  0.000000    0.00462963   1 t-inv F
  0.166667  0.000000  0.000000    0.00462963   2 t-inv F
  0.333333  0.000000  0.000000    0.00462963   3 t-inv F
  0.500000  0.000000  0.000000    0.00462963   4 t-inv F
 -0.333333 -0.000000 -0.000000    0.00462963   5 t-inv F
 -0.166667 -0.000000  0.000000    0.00462963   6 t-inv F
  0.000000  0.166667  0.000000    0.00462963   7 t-inv F
  0.166667  0.166667  0.000000    0.00462963   8 t-inv F
  0.333333  0.166667  0.000000    0.00462963   9 t-inv F
  0.500000  0.166667  0.000000    0.00462963  10 t-inv F
 -0.333333  0.166667  0.000000    0.00462963  11 t-inv F
 -0.166667  0.166667  0.000000    0.00462963  12 t-inv F
  0.000000  0.333333  0.000000    0.00462963  13 t-inv F
  0.166667  0.333333  0.000000    0.00462963  14 t-inv F
  0.333333  0.333333  0.000000    0.00462963  15 t-inv F
  0.500000  0.333333  0.000000    0.00462963  16 t-inv F
 -0.333333  0.333333 -0.000000    0.00462963  17 t-inv F
 -0.166667  0.333333 -0.000000    0.00462963  18 t-inv F
  0.000000  0.500000  0.000000    0.00462963  19 t-inv F
  0.166667  0.500000  0.000000    0.00462963  20 t-inv F
  0.333333  0.500000  0.000000    0.00462963  21 t-inv F
  0.500000  0.500000 -0.000000    0.00462963  22 t-inv F
 -0.333333  0.500000 -0.000000    0.00462963  23 t-inv F
 -0.166667  0.500000  0.000000    0.00462963  24 t-inv F
 -0.000000 -0.333333  0.000000    0.00462963  25 t-inv F
  0.166667 -0.333333  0.000000    0.00462963  26 t-inv F
  0.333333 -0.333333  0.000000    0.00462963  27 t-inv F
  0.500000 -0.333333 -0.000000    0.00462963  28 t-inv F
 -0.333333 -0.333333 -0.000000    0.00462963  29 t-inv F
 -0.166667 -0.333333  0.000000    0.00462963  30 t-inv F
 -0.000000 -0.166667 -0.000000    0.00462963  31 t-inv F
  0.166667 -0.166667  0.000000    0.00462963  32 t-inv F
  0.333333 -0.166667  0.000000    0.00462963  33 t-inv F
  0.500000 -0.166667  0.000000    0.00462963  34 t-inv F
 -0.333333 -0.166667 -0.000000    0.00462963  35 t-inv F
 -0.166667 -0.166667  0.000000    0.00462963  36 t-inv F
 -0.000000 -0.000000  0.166667    0.00462963  37 t-inv F
  0.166667  0.000000  0.166667    0.00462963  38 t-inv F
  0.333333  0.000000  0.166667    0.00462963  39 t-inv F
  0.500000  0.000000  0.166667    0.00462963  40 t-inv F
 -0.333333 -0.000000  0.166667    0.00462963  41 t-inv F
 -0.166667 -0.000000  0.166667    0.00462963  42 t-inv F
  0.000000  0.166667  0.166667    0.00462963  43 t-inv F
  0.166667  0.166667  0.166667    0.00462963  44 t-inv F
  0.333333  0.166667  0.166667    0.00462963  45 t-inv F
  0.500000  0.166667  0.166667    0.00462963  46 t-inv F
 -0.333333  0.166667  0.166667    0.00462963  47 t-inv F
 -0.166667  0.166667  0.166667    0.00462963  48 t-inv F
  0.000000  0.333333  0.166667    0.00462963  49 t-inv F
  0.166667  0.333333  0.166667    0.00462963  50 t-inv F
  0.333333  0.333333  0.166667    0.00462963  51 t-inv F
  0.500000  0.333333  0.166667    0.00462963  52 t-inv F
 -0.333333  0.333333  0.166667    0.00462963  53 t-inv F
 -0.166667  0.333333  0.166667    0.00462963  54 t-inv F
  0.000000  0.500000  0.166667    0.00462963  55 t-inv F
  0.166667  0.500000  0.166667    0.00462963  56 t-inv F
  0.333333  0.500000  0.166667    0.00462963  57 t-inv F
  0.500000  0.500000  0.166667    0.00462963  58 t-inv F
 -0.333333  0.500000  0.166667    0.00462963  59 t-inv F
 -0.166667  0.500000  0.166667    0.00462963  60 t-inv F
 -0.000000 -0.333333  0.166667    0.00462963  61 t-inv F
  0.166667 -0.333333  0.166667    0.00462963  62 t-inv F
  0.333333 -0.333333  0.166667    0.00462963  63 t-inv F
  0.500000 -0.333333  0.166667    0.00462963  64 t-inv F
 -0.333333 -0.333333  0.166667    0.00462963  65 t-inv F
 -0.166667 -0.333333  0.166667    0.00462963  66 t-inv F
 -0.000000 -0.166667  0.166667    0.00462963  67 t-inv F
  0.166667 -0.166667  0.166667    0.00462963  68 t-inv F
  0.333333 -0.166667  0.166667    0.00462963  69 t-inv F
  0.500000 -0.166667  0.166667    0.00462963  70 t-inv F
 -0.333333 -0.166667  0.166667    0.00462963  71 t-inv F
 -0.166667 -0.166667  0.166667    0.00462963  72 t-inv F
  0.000000 -0.000000  0.333333    0.00462963  73 t-inv F
  0.166667  0.000000  0.333333    0.00462963  74 t-inv F
  0.333333  0.000000  0.333333    0.00462963  75 t-inv F
  0.500000  0.000000  0.333333    0.00462963  76 t-inv F
 -0.333333 -0.000000  0.333333    0.00462963  77 t-inv F
 -0.166667 -0.000000  0.333333    0.00462963  78 t-inv F
  0.000000  0.166667  0.333333    0.00462963  79 t-inv F
  0.166667  0.166667  0.333333    0.00462963  80 t-inv F
  0.333333  0.166667  0.333333    0.00462963  81 t-inv F
  0.500000  0.166667  0.333333    0.00462963  82 t-inv F
 -0.333333  0.166667  0.333333    0.00462963  83 t-inv F
 -0.166667  0.166667  0.333333    0.00462963  84 t-inv F
 -0.000000  0.333333  0.333333    0.00462963  85 t-inv F
  0.166667  0.333333  0.333333    0.00462963  86 t-inv F
  0.333333  0.333333  0.333333    0.00462963  87 t-inv F
  0.500000  0.333333  0.333333    0.00462963  88 t-inv F
 -0.333333  0.333333  0.333333    0.00462963  89 t-inv F
 -0.166667  0.333333  0.333333    0.00462963  90 t-inv F
  0.000000  0.500000  0.333333    0.00462963  91 t-inv F
  0.166667  0.500000  0.333333    0.00462963  92 t-inv F
  0.333333  0.500000  0.333333    0.00462963  93 t-inv F
  0.500000  0.500000  0.333333    0.00462963  94 t-inv F
 -0.333333  0.500000  0.333333    0.00462963  95 t-inv F
 -0.166667  0.500000  0.333333    0.00462963  96 t-inv F
 -0.000000 -0.333333  0.333333    0.00462963  97 t-inv F
  0.166667 -0.333333  0.333333    0.00462963  98 t-inv F
  0.333333 -0.333333  0.333333    0.00462963  99 t-inv F
  0.500000 -0.333333  0.333333    0.00462963 100 t-inv F
 -0.333333 -0.333333  0.333333    0.00462963 101 t-inv F
 -0.166667 -0.333333  0.333333    0.00462963 102 t-inv F
 -0.000000 -0.166667  0.333333    0.00462963 103 t-inv F
  0.166667 -0.166667  0.333333    0.00462963 104 t-inv F
  0.333333 -0.166667  0.333333    0.00462963 105 t-inv F
  0.500000 -0.166667  0.333333    0.00462963 106 t-inv F
 -0.333333 -0.166667  0.333333    0.00462963 107 t-inv F
 -0.166667 -0.166667  0.333333    0.00462963 108 t-inv F
 -0.000000 -0.000000  0.500000    0.00462963 109 t-inv F
  0.166667  0.000000  0.500000    0.00462963 110 t-inv F
  0.333333  0.000000  0.500000    0.00462963 111 t-inv F
  0.500000  0.000000  0.500000    0.00462963 112 t-inv F
 -0.333333 -0.000000  0.500000    0.00462963 113 t-inv F
 -0.166667 -0.000000  0.500000    0.00462963 114 t-inv F
 -0.000000  0.166667  0.500000    0.00462963 115 t-inv F
  0.166667  0.166667  0.500000    0.00462963 116 t-inv F
  0.333333  0.166667  0.500000    0.00462963 117 t-inv F
  0.500000  0.166667  0.500000    0.00462963 118 t-inv F
 -0.333333  0.166667  0.500000    0.00462963 119 t-inv F
 -0.166667  0.166667  0.500000    0.00462963 120 t-inv F
 -0.000000  0.333333  0.500000    0.00462963 121 t-inv F
  0.166667  0.333333  0.500000    0.00462963 122 t-inv F
  0.333333  0.333333  0.500000    0.00462963 123 t-inv F
  0.500000  0.333333  0.500000    0.00462963 124 t-inv F
 -0.333333  0.333333  0.500000    0.00462963 125 t-inv F
 -0.166667  0.333333  0.500000    0.00462963 126 t-inv F
  0.000000  0.500000  0.500000    0.00462963 127 t-inv F
  0.166667  0.500000  0.500000    0.00462963 128 t-inv F
  0.333333  0.500000  0.500000    0.00462963 129 t-inv F
  0.500000  0.500000  0.500000    0.00462963 130 t-inv F
 -0.333333  0.500000  0.500000    0.00462963 131 t-inv F
 -0.166667  0.500000  0.500000    0.00462963 132 t-inv F
 -0.000000 -0.333333  0.500000    0.00462963 133 t-inv F
  0.166667 -0.333333  0.500000    0.00462963 134 t-inv F
  0.333333 -0.333333  0.500000    0.00462963 135 t-inv F
  0.500000 -0.333333  0.500000    0.00462963 136 t-inv F
 -0.333333 -0.333333  0.500000    0.00462963 137 t-inv F
 -0.166667 -0.333333  0.500000    0.00462963 138 t-inv F
 -0.000000 -0.166667  0.500000    0.00462963 139 t-inv F
  0.166667 -0.166667  0.500000    0.00462963 140 t-inv F
  0.333333 -0.166667  0.500000    0.00462963 141 t-inv F
  0.500000 -0.166667  0.500000    0.00462963 142 t-inv F
 -0.333333 -0.166667  0.500000    0.00462963 143 t-inv F
 -0.166667 -0.166667  0.500000    0.00462963 144 t-inv F
  0.000000  0.000000 -0.333333    0.00462963 145 t-inv F
  0.166667  0.000000 -0.333333    0.00462963 146 t-inv F
  0.333333  0.000000 -0.333333    0.00462963 147 t-inv F
  0.500000  0.000000 -0.333333    0.00462963 148 t-inv F
 -0.333333 -0.000000 -0.333333    0.00462963 149 t-inv F
 -0.166667 -0.000000 -0.333333    0.00462963 150 t-inv F
  0.000000  0.166667 -0.333333    0.00462963 151 t-inv F
  0.166667  0.166667 -0.333333    0.00462963 152 t-inv F
  0.333333  0.166667 -0.333333    0.00462963 153 t-inv F
  0.500000  0.166667 -0.333333    0.00462963 154 t-inv F
 -0.333333  0.166667 -0.333333    0.00462963 155 t-inv F
 -0.166667  0.166667 -0.333333    0.00462963 156 t-inv F
  0.000000  0.333333 -0.333333    0.00462963 157 t-inv F
  0.166667  0.333333 -0.333333    0.00462963 158 t-inv F
  0.333333  0.333333 -0.333333    0.00462963 159 t-inv F
  0.500000  0.333333 -0.333333    0.00462963 160 t-inv F
 -0.333333  0.333333 -0.333333    0.00462963 161 t-inv F
 -0.166667  0.333333 -0.333333    0.00462963 162 t-inv F
  0.000000  0.500000 -0.333333    0.00462963 163 t-inv F
  0.166667  0.500000 -0.333333    0.00462963 164 t-inv F
  0.333333  0.500000 -0.333333    0.00462963 165 t-inv F
  0.500000  0.500000 -0.333333    0.00462963 166 t-inv F
 -0.333333  0.500000 -0.333333    0.00462963 167 t-inv F
 -0.166667  0.500000 -0.333333    0.00462963 168 t-inv F
  0.000000 -0.333333 -0.333333    0.00462963 169 t-inv F
  0.166667 -0.333333 -0.333333    0.00462963 170 t-inv F
  0.333333 -0.333333 -0.333333    0.00462963 171 t-inv F
  0.500000 -0.333333 -0.333333    0.00462963 172 t-inv F
 -0.333333 -0.333333 -0.333333    0.00462963 173 t-inv F
 -0.166667 -0.333333 -0.333333    0.00462963 174 t-inv F
  0.000000 -0.166667 -0.333333    0.00462963 175 t-inv F
  0.166667 -0.166667 -0.333333    0.00462963 176 t-inv F
  0.333333 -0.166667 -0.333333    0.00462963 177 t-inv F
  0.500000 -0.166667 -0.333333    0.00462963 178 t-inv F
 -0.333333 -0.166667 -0.333333    0.00462963 179 t-inv F
 -0.166667 -0.166667 -0.333333    0.00462963 180 t-inv F
  0.000000  0.000000 -0.166667    0.00462963 181 t-inv F
  0.166667  0.000000 -0.166667    0.00462963 182 t-inv F
  0.333333  0.000000 -0.166667    0.00462963 183 t-inv F
  0.500000  0.000000 -0.166667    0.00462963 184 t-inv F
 -0.333333 -0.000000 -0.166667    0.00462963 185 t-inv F
 -0.166667  0.000000 -0.166667    0.00462963 186 t-inv F
  0.000000  0.166667 -0.166667    0.00462963 187 t-inv F
  0.166667  0.166667 -0.166667    0.00462963 188 t-inv F
  0.333333  0.166667 -0.166667    0.00462963 189 t-inv F
  0.500000  0.166667 -0.166667    0.00462963 190 t-inv F
 -0.333333  0.166667 -0.166667    0.00462963 191 t-inv F
 -0.166667  0.166667 -0.166667    0.00462963 192 t-inv F
  0.000000  0.333333 -0.166667    0.00462963 193 t-inv F
  0.166667  0.333333 -0.166667    0.00462963 194 t-inv F
  0.333333  0.333333 -0.166667    0.00462963 195 t-inv F
  0.500000  0.333333 -0.166667    0.00462963 196 t-inv F
 -0.333333  0.333333 -0.166667    0.00462963 197 t-inv F
 -0.166667  0.333333 -0.166667    0.00462963 198 t-inv F
  0.000000  0.500000 -0.166667    0.00462963 199 t-inv F
  0.166667  0.500000 -0.166667    0.00462963 200 t-inv F
  0.333333  0.500000 -0.166667    0.00462963 201 t-inv F
  0.500000  0.500000 -0.166667    0.00462963 202 t-inv F
 -0.333333  0.500000 -0.166667    0.00462963 203 t-inv F
 -0.166667  0.500000 -0.166667    0.00462963 204 t-inv F
 -0.000000 -0.333333 -0.166667    0.00462963 205 t-inv F
  0.166667 -0.333333 -0.166667    0.00462963 206 t-inv F
  0.333333 -0.333333 -0.166667    0.00462963 207 t-inv F
  0.500000 -0.333333 -0.166667    0.00462963 208 t-inv F
 -0.333333 -0.333333 -0.166667    0.00462963 209 t-inv F
 -0.166667 -0.333333 -0.166667    0.00462963 210 t-inv F
  0.000000 -0.166667 -0.166667    0.00462963 211 t-inv F
  0.166667 -0.166667 -0.166667    0.00462963 212 t-inv F
  0.333333 -0.166667 -0.166667    0.00462963 213 t-inv F
  0.500000 -0.166667 -0.166667    0.00462963 214 t-inv F
 -0.333333 -0.166667 -0.166667    0.00462963 215 t-inv F
 -0.166667 -0.166667 -0.166667    0.00462963 216 t-inv F


--------------------------------------------------------------------------------------------------------




 Dimension of arrays:
   k-points           NKPTS =    216   k-points in BZ     NKDIM =    216   number of bands    NBANDS=    128
   number of dos      NEDOS =    301   number of ions     NIONS =      1
   non local maximal  LDIM  =      9   non local SUM 2l+1 LMDIM =     37
   total plane-waves  NPLWV =  21952
   max r-space proj   IRMAX =      1   max aug-charges    IRDMAX= 103641
   dimension x,y,z NGX =    28 NGY =   28 NGZ =   28
   dimension x,y,z NGXF=    56 NGYF=   56 NGZF=   56
   support grid    NGXF=   112 NGYF=  112 NGZF=  112
   ions per type =               1
   NGX,Y,Z   is equivalent  to a cutoff of  10.30, 10.30, 10.30 a.u.
   NGXF,Y,Z  is equivalent  to a cutoff of  20.59, 20.59, 20.59 a.u.

 SYSTEM =  Og_FCC                                  
 POSCAR =  Rn_FCC                                  

 Startparameter for this run:
   NWRITE =      1    write-flag & timer
   PREC   = accura    normal or accurate (medium, high low for compatibility)
   ISTART =      1    job   : 0-new  1-cont  2-samecut
   ICHARG =      0    charge: 1-file 2-atom 10-const
   ISPIN  =      1    spin polarized calculation?
   LNONCOLLINEAR =      T non collinear calculations
   LSORBIT =      T    spin-orbit coupling
   INIWAV =      1    electr: 0-lowe 1-rand  2-diag
   LASPH  =      F    aspherical Exc in radial PAW
   METAGGA=      F    non-selfconsistent MetaGGA calc.

 Electronic Relaxation 1
   ENCUT  =  300.0 eV  22.05 Ry    4.70 a.u.   6.38  6.38  6.38*2*pi/ulx,y,z
   ENINI  =  300.0     initial cutoff
   ENAUG  =  715.6 eV  augmentation charge cutoff
   NELM   =      1;   NELMIN=  2; NELMDL=  0     # of ELM steps 
   EDIFF  = 0.1E-07   stopping-criterion for ELM
   LREAL  =      F    real-space projection
   NLSPLINE    = F    spline interpolate recip. space projectors
   LCOMPAT=      F    compatible to vasp.4.4
   GGA_COMPAT  = F    GGA compatible to vasp.4.4-vasp.4.6
   LMAXPAW     = -100 max onsite density
   LMAXMIX     =    2 max onsite mixed and CHGCAR
   VOSKOWN=      0    Vosko Wilk Nusair interpolation
   ROPT   =    0.00000
 Ionic relaxation
   EDIFFG = 0.1E-04   stopping-criterion for IOM
   NSW    =      1    number of steps for IOM
   NBLOCK =      1;   KBLOCK =      1    inner block; outer block 
   IBRION =     -1    ionic relax: 0-MD 1-quasi-New 2-CG
   NFREE  =      5    steps in history (QN), initial steepest desc. (CG)
   ISIF   =      3    stress and relaxation
   IWAVPR =     10    prediction:  0-non 1-charg 2-wave 3-comb
   ISYM   =      0    0-nonsym 1-usesym 2-fastsym
   LCORR  =      T    Harris-Foulkes like correction to forces

   POTIM  = 0.1000    time-step for ionic-motion
   TEIN   =    0.0    initial temperature
   TEBEG  =    0.0;   TEEND  =   0.0 temperature during run
   SMASS  =  -3.00    Nose mass-parameter (am)
   estimated Nose-frequenzy (Omega)   =  0.10E-29 period in steps =****** mass=  -0.467E-27a.u.
   SCALEE = 1.0000    scale energy and forces
   NPACO  =    256;   APACO  = 16.0  distance and # of slots for P.C.
   PSTRESS=    0.0 pullay stress

  Mass of Ions in am
   POMASS = 220.17
  Ionic Valenz
   ZVAL   =  18.00
  Atomic Wigner-Seitz radii
   RWIGS  =  -1.00
  virtual crystal weights 
   VCA    =   1.00
   NELECT =      18.0000    total number of electrons
   NUPDOWN=      -1.0000    fix difference up-down

 DOS related values:
   EMIN   =  10.00;   EMAX   =-10.00  energy-range for DOS
   EFERMI =   0.00
   ISMEAR =     0;   SIGMA  =   0.00  broadening in eV -4-tet -1-fermi 0-gaus

 Electronic relaxation 2 (details)
   IALGO  =     38    algorithm
   LDIAG  =      T    sub-space diagonalisation (order eigenvalues)
   LSUBROT=      F    optimize rotation matrix (better conditioning)
   TURBO    =      0    0=normal 1=particle mesh
   IRESTART =      0    0=no restart 2=restart with 2 vectors
   NREBOOT  =      0    no. of reboots
   NMIN     =      0    reboot dimension
   EREF     =   0.00    reference energy to select bands
   IMIX   =      1    mixing-type and parameters
     AMIX     =   0.40;   BMIX     =  1.00
     AMIX_MAG =   1.60;   BMIX_MAG =  1.00
     AMIN     =   0.10
     WC   =   100.;   INIMIX=   1;  MIXPRE=   1;  MAXMIX=  50

 Intra band minimization:
   WEIMIN = 0.0000     energy-eigenvalue tresh-hold
   EBREAK =  0.20E-10  absolut break condition
   DEPER  =   0.30     relativ break condition  

   TIME   =   0.40     timestep for ELM

  volume/ion in A,a.u.               =      65.32       440.82
  Fermi-wavevector in a.u.,A,eV,Ry     =   1.065315  2.013153 15.441193  1.134896
  Thomas-Fermi vector in A             =   2.200862
 
 Write flags
   LWAVE        =      T    write WAVECAR
   LDOWNSAMPLE  =      F    k-point downsampling of WAVECAR
   LCHARG       =      F    write CHGCAR
   LVTOT        =      F    write LOCPOT, total local potential
   LVHAR        =      F    write LOCPOT, Hartree potential only
   LELF         =      F    write electronic localiz. function (ELF)
   LORBIT       =      0    0 simple, 1 ext, 2 COOP (PROOUT), +10 PAW based schemes


 Dipole corrections
   LMONO  =      F    monopole corrections only (constant potential shift)
   LDIPOL =      F    correct potential (dipole corrections)
   IDIPOL =      0    1-x, 2-y, 3-z, 4-all directions 
   EPSILON=  1.0000000 bulk dielectric constant

 Exchange correlation treatment:
   GGA     =    --    GGA type
   LEXCH   =     8    internal setting for exchange type
   VOSKOWN=      0    Vosko Wilk Nusair interpolation
   EXXOEP  =     0    0=HF, 1=EXX-LHF (local Hartree Fock) 2=EXX OEP
   LHFCALC =     T    Hartree Fock is set to
   LSYMGRAD=     F    symmetrize gradient (conserves proper symmetry)
   PRECFOCK=normal    Normal, Fast or Accurate (Low or Medium for compatibility)
   LRHFCALC=     F    long range Hartree Fock
   LRSCOR  =     F    long range correlation only (use DFT for short range part)
   LTHOMAS =     F    Thomas Fermi screening in HF
   LMODELHF=     F    short range full HF, long range fraction AEXX
   ENCUT4O =  -1.0   cutoff for four orbital integrals eV
   LMAXFOCK=     4    L truncation for augmentation on plane wave grid
   LMAXFOCKAE=   4    L truncation for all-electron charge restoration on plane wave grid
   NMAXFOCKAE=   1    number of basis functions for all-electron charge restoration
   LFOCKAEDFT=     F  apply the AE augmentation even for DFT
   NKREDX  =     1    reduce k-point grid by
   NKREDY  =     1    reduce k-point grid by
   NKREDZ  =     1    reduce k-point grid by
   SHIFTRED=     F    shift reduced grid of Gamma
   HFKIDENT=     F    idential grid for each k-point
   ODDONLY =     F    use only odd q-grid points
   EVENONLY=     F    use only even q-grid points
   HFALPHA =   -1.0000 decay constant for conv. correction
   MCALPHA =    0.0000 extent of test-charge in conv. correction in multipole expansion
   AEXX    =    1.0000 exact exchange contribution
   HFSCREEN=    0.0000 screening length (either q_TF or 0.3 A-1)
   HFSCREENC=   0.0000 screening length for correlation (either q_TF or 0.3 A-1)
   HFRCUT  =    0.0000 spherical cutoff for potential kernel
   ALDAX   =    0.0000 LDA exchange part
   AGGAX   =    0.0000 GGA exchange part
   ALDAC   =    0.0000 LDA correlation
   AGGAC   =    0.0000 GGA correlation
   ENCUTFOCK=  -1.0 apply spherical cutoff to Coloumb kernel
   NBANDSGWLOW=     1    first orbital included in HF term
   NBLOCK_FOCK=    64    blocking factor in FOCK_ACC
 Linear response parameters
   LEPSILON=     F    determine dielectric tensor
   LRPA    =     F    only Hartree local field effects (RPA)
   LNABLA  =     F    use nabla operator in PAW spheres
   LVEL    =     F    velocity operator in full k-point grid
   LINTERFAST=   F  fast interpolation
   KINTER  =     0    interpolate to denser k-point grid
   CSHIFT  =0.1000    complex shift for real part using Kramers Kronig
   OMEGAMAX=  -1.0    maximum frequency
   DEG_THRESHOLD= 0.2000000E-02 threshold for treating states as degnerate
   RTIME   =   -0.100 relaxation time in fs
  (WPLASMAI=    0.000 imaginary part of plasma frequency in eV, 0.658/RTIME)
   DFIELD  = 0.0000000 0.0000000 0.0000000 field for delta impulse in time
 
 Orbital magnetization related:
   ORBITALMAG=     F  switch on orbital magnetization
   LCHIMAG   =     F  perturbation theory with respect to B field
   DQ        =  0.001000  dq finite difference perturbation B field
   LLRAUG    =     F  two centre corrections for induced B field

 Response functions by sum over occupied states:
   ALGO    =QPGW       execute GW part
   LFXC    =     F    include DFT xc kernel in TD-HF and W
   LADDER  =     F    particle hole ladder diagrams for BSE/TD-HF and W (Nano-quanta)
   LRPAFORCE=     F   calculate RPA forces
   LHARTREE=     T    include Hartree terms (bubbles-RPA) in BSE/TD-HF
   IBSE    =     0    BSE modus: 0 exact, 1 time-evolution (store matrix), 10 time-evolution (implicit)
   KPOINT  =    -1   0   0   0    k-point index at which BSE equation is solved (and G at which response is eval.)
   LTRIPLET=     F    triplet instead of singlet excitation (BSE only)
   LRSRPA  =     F    range separated RPA (total - short) in ACFDT
   LTCTE   =     F    use test-charge test-electron dielectric function
   LTETE   =     F    use test-electron test-electron dielectric function
   LFXCEPS =     F    determine f_xc=epsilon-1/Xi Sharma and Gross kernel
   LFXHEG  =     F    model exchange using f_x(G,k_F) from free electron gas
   NATURALO=     2    0 natural orbitals, 1 only virtual, 2 only occupied-virtual rotation
   L2ORDER =     F    2nd order terms only
   LMP2LT   =     F    use LT MP2
   LUSEW   =     F    use screened W from WXXXX.tmp files instead of (screened) HF kernel
   ENCUTGW = 200.0    cutoff for response function in eV
   ENCUTGWSOFT = 200.0 soft cutoff for Coulomb kernel in GW response function in eV
   ENCUTLF =  -1.0    cutoff for local field effects
   LMAXMP2 =    -1    maximum L for one center terms
   SCISSOR =   0.0    scissor correction
   NOMEGA  =    50    number of frequencies
   NOMEGAR =    50    number of frequencies along real axis
   NBANDSGW=    -1    number of bands for which selfenergy shift is calculated
   NBANDSGWLOW=     1 lowest band included in GW (to exclude core correlation)
   NBANDSO =    -1    number of bands for electron-hole treatment (occupied)
   NBANDSV =    -1    number of bands for electron-hole treatment (virtual)
   NELM    =     1    number of iterations in solving QP/BSE equation
   NELMHF  =     1    number of iterations in the inner HF iteration
   DIM     =     3    dimensionality of system (0=0D molecules, 3=3D)
   ANTIRES =     0    antiresonant part (0) no TDA (1) w=0 exact (2) accurate
   OMEGAMAX= -30.0    maximum frequency
   OMEGAMIN= -30.000    minimum frequency
   OMEGATL =-200.0    maximum frequency of tail
   OMEGAGRID=     0    grid type (0 default)
   CSHIFT  =-0.100    complex shift used in evaluation of response functions
   SELFENERGY=   F    calculate selfenergy instead of QP shifts
   LSPECTRAL =   T    use spectral functions                   
   LSPECTRALGW=   F   use spectral functions to calculate int dz G(w-z) W(z) (more accurate)
   LSINGLES  =   F   calculate the singles contribution to the correlation energy
   LFERMIGW  =   F   update Fermi-energy in the Greens function

   ODDONLYGW =   F    avoid all even points for polarizability 
   EVENONLYGW=   F    avoid all odd  points for polarizability 
   NKREDLFX  =   1   NKREDLFY  =   1   NKREDLFZ  =   1

   TELESCOPE =   0   use telescope k-point sampling
   TAUPAR    =   1   number of TAU groups used in imaginary time calculation
   OMEGAPAR  =  -1   number of OMEGA groups used in imaginary frequency calculation



--------------------------------------------------------------------------------------------------------


 Static calculation
 charge density and potential will be updated during run
 non collinear spin polarized calculation
 Variant of blocked Davidson
 Davidson routine will perform the subspace rotation
 perform sub-space diagonalisation
    after iterative eigenvector-optimisation
 Kerker-like  mixing scheme
 using additional bands          119
 reciprocal scheme for non local part
 use partial core corrections
 calculate Harris-corrections to forces 
   (improved forces if not selfconsistent)
 use gradient corrections 
 use of overlap-Matrix (Vanderbilt PP)
 Gauss-broadening in eV      SIGMA  =   0.00


--------------------------------------------------------------------------------------------------------


  energy-cutoff  :      300.00
  volume of cell :       65.32
      direct lattice vectors                 reciprocal lattice vectors
     4.520564769  0.000000000  0.000000000     0.221211298 -0.127716402 -0.090309134
     2.260282385  3.914923930 -0.000000000     0.000000000  0.255432805 -0.090309134
     2.260282385  1.304974643  3.691025678    -0.000000000  0.000000000  0.270927403

  length of vectors
     4.520564769  4.520564769  4.520564769     0.270927403  0.270927403  0.270927403


 
 old parameters found on file WAVECAR:
  energy-cutoff  :      300.00
  volume of cell :       65.32
      direct lattice vectors                 reciprocal lattice vectors
     4.520564769  0.000000000  0.000000000     0.221211298 -0.127716402 -0.090309134
     2.260282385  3.914923930 -0.000000000     0.000000000  0.255432805 -0.090309134
     2.260282385  1.304974643  3.691025678    -0.000000000  0.000000000  0.270927403

  length of vectors

 
 k-points in units of 2pi/SCALE and weight: k-points                                
   0.00000000  0.00000000  0.00000000       0.005
   0.03686855 -0.02128607 -0.01505152       0.005
   0.07373710 -0.04257213 -0.03010304       0.005
   0.11060565 -0.06385820 -0.04515457       0.005
  -0.07373710  0.04257213  0.03010304       0.005
  -0.03686855  0.02128607  0.01505152       0.005
   0.00000000  0.04257213 -0.01505152       0.005
   0.03686855  0.02128607 -0.03010304       0.005
   0.07373710  0.00000000 -0.04515457       0.005
   0.11060565 -0.02128607 -0.06020609       0.005
  -0.07373710  0.08514427  0.01505152       0.005
  -0.03686855  0.06385820  0.00000000       0.005
   0.00000000  0.08514427 -0.03010304       0.005
   0.03686855  0.06385820 -0.04515457       0.005
   0.07373710  0.04257213 -0.06020609       0.005
   0.11060565  0.02128607 -0.07525761       0.005
  -0.07373710  0.12771640  0.00000000       0.005
  -0.03686855  0.10643034 -0.01505152       0.005
   0.00000000  0.12771640 -0.04515457       0.005
   0.03686855  0.10643034 -0.06020609       0.005
   0.07373710  0.08514427 -0.07525761       0.005
   0.11060565  0.06385820 -0.09030913       0.005
  -0.07373710  0.17028854 -0.01505152       0.005
  -0.03686855  0.14900247 -0.03010304       0.005
  -0.00000000 -0.08514427  0.03010304       0.005
   0.03686855 -0.10643034  0.01505152       0.005
   0.07373710 -0.12771640 -0.00000000       0.005
   0.11060565 -0.14900247 -0.01505152       0.005
  -0.07373710 -0.04257213  0.06020609       0.005
  -0.03686855 -0.06385820  0.04515457       0.005
  -0.00000000 -0.04257213  0.01505152       0.005
   0.03686855 -0.06385820 -0.00000000       0.005
   0.07373710 -0.08514427 -0.01505152       0.005
   0.11060565 -0.10643034 -0.03010304       0.005
  -0.07373710  0.00000000  0.04515457       0.005
  -0.03686855 -0.02128607  0.03010304       0.005
  -0.00000000  0.00000000  0.04515457       0.005
   0.03686855 -0.02128607  0.03010304       0.005
   0.07373710 -0.04257213  0.01505152       0.005
   0.11060565 -0.06385820 -0.00000000       0.005
  -0.07373710  0.04257213  0.07525761       0.005
  -0.03686855  0.02128607  0.06020609       0.005
  -0.00000000  0.04257213  0.03010304       0.005
   0.03686855  0.02128607  0.01505152       0.005
   0.07373710  0.00000000  0.00000000       0.005
   0.11060565 -0.02128607 -0.01505152       0.005
  -0.07373710  0.08514427  0.06020609       0.005
  -0.03686855  0.06385820  0.04515457       0.005
  -0.00000000  0.08514427  0.01505152       0.005
   0.03686855  0.06385820  0.00000000       0.005
   0.07373710  0.04257213 -0.01505152       0.005
   0.11060565  0.02128607 -0.03010304       0.005
  -0.07373710  0.12771640  0.04515457       0.005
  -0.03686855  0.10643034  0.03010304       0.005
  -0.00000000  0.12771640  0.00000000       0.005
   0.03686855  0.10643034 -0.01505152       0.005
   0.07373710  0.08514427 -0.03010304       0.005
   0.11060565  0.06385820 -0.04515457       0.005
  -0.07373710  0.17028854  0.03010304       0.005
  -0.03686855  0.14900247  0.01505152       0.005
  -0.00000000 -0.08514427  0.07525761       0.005
   0.03686855 -0.10643034  0.06020609       0.005
   0.07373710 -0.12771640  0.04515457       0.005
   0.11060565 -0.14900247  0.03010304       0.005
  -0.07373710 -0.04257213  0.10536066       0.005
  -0.03686855 -0.06385820  0.09030913       0.005
  -0.00000000 -0.04257213  0.06020609       0.005
   0.03686855 -0.06385820  0.04515457       0.005
   0.07373710 -0.08514427  0.03010304       0.005
   0.11060565 -0.10643034  0.01505152       0.005
  -0.07373710  0.00000000  0.09030913       0.005
  -0.03686855 -0.02128607  0.07525761       0.005
  -0.00000000  0.00000000  0.09030913       0.005
   0.03686855 -0.02128607  0.07525761       0.005
   0.07373710 -0.04257213  0.06020609       0.005
   0.11060565 -0.06385820  0.04515457       0.005
  -0.07373710  0.04257213  0.12041218       0.005
  -0.03686855  0.02128607  0.10536066       0.005
  -0.00000000  0.04257213  0.07525761       0.005
   0.03686855  0.02128607  0.06020609       0.005
   0.07373710  0.00000000  0.04515457       0.005
   0.11060565 -0.02128607  0.03010304       0.005
  -0.07373710  0.08514427  0.10536066       0.005
  -0.03686855  0.06385820  0.09030913       0.005
  -0.00000000  0.08514427  0.06020609       0.005
   0.03686855  0.06385820  0.04515457       0.005
   0.07373710  0.04257213  0.03010304       0.005
   0.11060565  0.02128607  0.01505152       0.005
  -0.07373710  0.12771640  0.09030913       0.005
  -0.03686855  0.10643034  0.07525761       0.005
  -0.00000000  0.12771640  0.04515457       0.005
   0.03686855  0.10643034  0.03010304       0.005
   0.07373710  0.08514427  0.01505152       0.005
   0.11060565  0.06385820  0.00000000       0.005
  -0.07373710  0.17028854  0.07525761       0.005
  -0.03686855  0.14900247  0.06020609       0.005
  -0.00000000 -0.08514427  0.12041218       0.005
   0.03686855 -0.10643034  0.10536066       0.005
   0.07373710 -0.12771640  0.09030913       0.005
   0.11060565 -0.14900247  0.07525761       0.005
  -0.07373710 -0.04257213  0.15051522       0.005
  -0.03686855 -0.06385820  0.13546370       0.005
  -0.00000000 -0.04257213  0.10536066       0.005
   0.03686855 -0.06385820  0.09030913       0.005
   0.07373710 -0.08514427  0.07525761       0.005
   0.11060565 -0.10643034  0.06020609       0.005
  -0.07373710  0.00000000  0.13546370       0.005
  -0.03686855 -0.02128607  0.12041218       0.005
  -0.00000000  0.00000000  0.13546370       0.005
   0.03686855 -0.02128607  0.12041218       0.005
   0.07373710 -0.04257213  0.10536066       0.005
   0.11060565 -0.06385820  0.09030913       0.005
  -0.07373710  0.04257213  0.16556675       0.005
  -0.03686855  0.02128607  0.15051522       0.005
  -0.00000000  0.04257213  0.12041218       0.005
   0.03686855  0.02128607  0.10536066       0.005
   0.07373710  0.00000000  0.09030913       0.005
   0.11060565 -0.02128607  0.07525761       0.005
  -0.07373710  0.08514427  0.15051522       0.005
  -0.03686855  0.06385820  0.13546370       0.005
  -0.00000000  0.08514427  0.10536066       0.005
   0.03686855  0.06385820  0.09030913       0.005
   0.07373710  0.04257213  0.07525761       0.005
   0.11060565  0.02128607  0.06020609       0.005
  -0.07373710  0.12771640  0.13546370       0.005
  -0.03686855  0.10643034  0.12041218       0.005
  -0.00000000  0.12771640  0.09030913       0.005
   0.03686855  0.10643034  0.07525761       0.005
   0.07373710  0.08514427  0.06020609       0.005
   0.11060565  0.06385820  0.04515457       0.005
  -0.07373710  0.17028854  0.12041218       0.005
  -0.03686855  0.14900247  0.10536066       0.005
  -0.00000000 -0.08514427  0.16556675       0.005
   0.03686855 -0.10643034  0.15051522       0.005
   0.07373710 -0.12771640  0.13546370       0.005
   0.11060565 -0.14900247  0.12041218       0.005
  -0.07373710 -0.04257213  0.19566979       0.005
  -0.03686855 -0.06385820  0.18061827       0.005
  -0.00000000 -0.04257213  0.15051522       0.005
   0.03686855 -0.06385820  0.13546370       0.005
   0.07373710 -0.08514427  0.12041218       0.005
   0.11060565 -0.10643034  0.10536066       0.005
  -0.07373710  0.00000000  0.18061827       0.005
  -0.03686855 -0.02128607  0.16556675       0.005
   0.00000000 -0.00000000 -0.09030913       0.005
   0.03686855 -0.02128607 -0.10536066       0.005
   0.07373710 -0.04257213 -0.12041218       0.005
   0.11060565 -0.06385820 -0.13546370       0.005
  -0.07373710  0.04257213 -0.06020609       0.005
  -0.03686855  0.02128607 -0.07525761       0.005
   0.00000000  0.04257213 -0.10536066       0.005
   0.03686855  0.02128607 -0.12041218       0.005
   0.07373710  0.00000000 -0.13546370       0.005
   0.11060565 -0.02128607 -0.15051522       0.005
  -0.07373710  0.08514427 -0.07525761       0.005
  -0.03686855  0.06385820 -0.09030913       0.005
   0.00000000  0.08514427 -0.12041218       0.005
   0.03686855  0.06385820 -0.13546370       0.005
   0.07373710  0.04257213 -0.15051522       0.005
   0.11060565  0.02128607 -0.16556675       0.005
  -0.07373710  0.12771640 -0.09030913       0.005
  -0.03686855  0.10643034 -0.10536066       0.005
   0.00000000  0.12771640 -0.13546370       0.005
   0.03686855  0.10643034 -0.15051522       0.005
   0.07373710  0.08514427 -0.16556675       0.005
   0.11060565  0.06385820 -0.18061827       0.005
  -0.07373710  0.17028854 -0.10536066       0.005
  -0.03686855  0.14900247 -0.12041218       0.005
   0.00000000 -0.08514427 -0.06020609       0.005
   0.03686855 -0.10643034 -0.07525761       0.005
   0.07373710 -0.12771640 -0.09030913       0.005
   0.11060565 -0.14900247 -0.10536066       0.005
  -0.07373710 -0.04257213 -0.03010304       0.005
  -0.03686855 -0.06385820 -0.04515457       0.005
   0.00000000 -0.04257213 -0.07525761       0.005
   0.03686855 -0.06385820 -0.09030913       0.005
   0.07373710 -0.08514427 -0.10536066       0.005
   0.11060565 -0.10643034 -0.12041218       0.005
  -0.07373710  0.00000000 -0.04515457       0.005
  -0.03686855 -0.02128607 -0.06020609       0.005
   0.00000000 -0.00000000 -0.04515457       0.005
   0.03686855 -0.02128607 -0.06020609       0.005
   0.07373710 -0.04257213 -0.07525761       0.005
   0.11060565 -0.06385820 -0.09030913       0.005
  -0.07373710  0.04257213 -0.01505152       0.005
  -0.03686855  0.02128607 -0.03010304       0.005
   0.00000000  0.04257213 -0.06020609       0.005
   0.03686855  0.02128607 -0.07525761       0.005
   0.07373710  0.00000000 -0.09030913       0.005
   0.11060565 -0.02128607 -0.10536066       0.005
  -0.07373710  0.08514427 -0.03010304       0.005
  -0.03686855  0.06385820 -0.04515457       0.005
   0.00000000  0.08514427 -0.07525761       0.005
   0.03686855  0.06385820 -0.09030913       0.005
   0.07373710  0.04257213 -0.10536066       0.005
   0.11060565  0.02128607 -0.12041218       0.005
  -0.07373710  0.12771640 -0.04515457       0.005
  -0.03686855  0.10643034 -0.06020609       0.005
   0.00000000  0.12771640 -0.09030913       0.005
   0.03686855  0.10643034 -0.10536066       0.005
   0.07373710  0.08514427 -0.12041218       0.005
   0.11060565  0.06385820 -0.13546370       0.005
  -0.07373710  0.17028854 -0.06020609       0.005
  -0.03686855  0.14900247 -0.07525761       0.005
   0.00000000 -0.08514427 -0.01505152       0.005
   0.03686855 -0.10643034 -0.03010304       0.005
   0.07373710 -0.12771640 -0.04515457       0.005
   0.11060565 -0.14900247 -0.06020609       0.005
  -0.07373710 -0.04257213  0.01505152       0.005
  -0.03686855 -0.06385820 -0.00000000       0.005
   0.00000000 -0.04257213 -0.03010304       0.005
   0.03686855 -0.06385820 -0.04515457       0.005
   0.07373710 -0.08514427 -0.06020609       0.005
   0.11060565 -0.10643034 -0.07525761       0.005
  -0.07373710  0.00000000  0.00000000       0.005
  -0.03686855 -0.02128607 -0.01505152       0.005
 
 k-points in reciprocal lattice and weights: k-points                                
   0.00000000  0.00000000  0.00000000       0.005
   0.16666667  0.00000000  0.00000000       0.005
   0.33333333  0.00000000  0.00000000       0.005
   0.50000000  0.00000000  0.00000000       0.005
  -0.33333333 -0.00000000 -0.00000000       0.005
  -0.16666667 -0.00000000  0.00000000       0.005
   0.00000000  0.16666667  0.00000000       0.005
   0.16666667  0.16666667  0.00000000       0.005
   0.33333333  0.16666667  0.00000000       0.005
   0.50000000  0.16666667  0.00000000       0.005
  -0.33333333  0.16666667  0.00000000       0.005
  -0.16666667  0.16666667  0.00000000       0.005
   0.00000000  0.33333333  0.00000000       0.005
   0.16666667  0.33333333  0.00000000       0.005
   0.33333333  0.33333333  0.00000000       0.005
   0.50000000  0.33333333  0.00000000       0.005
  -0.33333333  0.33333333 -0.00000000       0.005
  -0.16666667  0.33333333 -0.00000000       0.005
   0.00000000  0.50000000  0.00000000       0.005
   0.16666667  0.50000000  0.00000000       0.005
   0.33333333  0.50000000  0.00000000       0.005
   0.50000000  0.50000000 -0.00000000       0.005
  -0.33333333  0.50000000 -0.00000000       0.005
  -0.16666667  0.50000000  0.00000000       0.005
  -0.00000000 -0.33333333  0.00000000       0.005
   0.16666667 -0.33333333  0.00000000       0.005
   0.33333333 -0.33333333  0.00000000       0.005
   0.50000000 -0.33333333 -0.00000000       0.005
  -0.33333333 -0.33333333 -0.00000000       0.005
  -0.16666667 -0.33333333  0.00000000       0.005
  -0.00000000 -0.16666667 -0.00000000       0.005
   0.16666667 -0.16666667  0.00000000       0.005
   0.33333333 -0.16666667  0.00000000       0.005
   0.50000000 -0.16666667  0.00000000       0.005
  -0.33333333 -0.16666667 -0.00000000       0.005
  -0.16666667 -0.16666667  0.00000000       0.005
  -0.00000000 -0.00000000  0.16666667       0.005
   0.16666667  0.00000000  0.16666667       0.005
   0.33333333  0.00000000  0.16666667       0.005
   0.50000000  0.00000000  0.16666667       0.005
  -0.33333333 -0.00000000  0.16666667       0.005
  -0.16666667 -0.00000000  0.16666667       0.005
   0.00000000  0.16666667  0.16666667       0.005
   0.16666667  0.16666667  0.16666667       0.005
   0.33333333  0.16666667  0.16666667       0.005
   0.50000000  0.16666667  0.16666667       0.005
  -0.33333333  0.16666667  0.16666667       0.005
  -0.16666667  0.16666667  0.16666667       0.005
   0.00000000  0.33333333  0.16666667       0.005
   0.16666667  0.33333333  0.16666667       0.005
   0.33333333  0.33333333  0.16666667       0.005
   0.50000000  0.33333333  0.16666667       0.005
  -0.33333333  0.33333333  0.16666667       0.005
  -0.16666667  0.33333333  0.16666667       0.005
   0.00000000  0.50000000  0.16666667       0.005
   0.16666667  0.50000000  0.16666667       0.005
   0.33333333  0.50000000  0.16666667       0.005
   0.50000000  0.50000000  0.16666667       0.005
  -0.33333333  0.50000000  0.16666667       0.005
  -0.16666667  0.50000000  0.16666667       0.005
  -0.00000000 -0.33333333  0.16666667       0.005
   0.16666667 -0.33333333  0.16666667       0.005
   0.33333333 -0.33333333  0.16666667       0.005
   0.50000000 -0.33333333  0.16666667       0.005
  -0.33333333 -0.33333333  0.16666667       0.005
  -0.16666667 -0.33333333  0.16666667       0.005
  -0.00000000 -0.16666667  0.16666667       0.005
   0.16666667 -0.16666667  0.16666667       0.005
   0.33333333 -0.16666667  0.16666667       0.005
   0.50000000 -0.16666667  0.16666667       0.005
  -0.33333333 -0.16666667  0.16666667       0.005
  -0.16666667 -0.16666667  0.16666667       0.005
   0.00000000 -0.00000000  0.33333333       0.005
   0.16666667  0.00000000  0.33333333       0.005
   0.33333333  0.00000000  0.33333333       0.005
   0.50000000  0.00000000  0.33333333       0.005
  -0.33333333 -0.00000000  0.33333333       0.005
  -0.16666667 -0.00000000  0.33333333       0.005
   0.00000000  0.16666667  0.33333333       0.005
   0.16666667  0.16666667  0.33333333       0.005
   0.33333333  0.16666667  0.33333333       0.005
   0.50000000  0.16666667  0.33333333       0.005
  -0.33333333  0.16666667  0.33333333       0.005
  -0.16666667  0.16666667  0.33333333       0.005
  -0.00000000  0.33333333  0.33333333       0.005
   0.16666667  0.33333333  0.33333333       0.005
   0.33333333  0.33333333  0.33333333       0.005
   0.50000000  0.33333333  0.33333333       0.005
  -0.33333333  0.33333333  0.33333333       0.005
  -0.16666667  0.33333333  0.33333333       0.005
   0.00000000  0.50000000  0.33333333       0.005
   0.16666667  0.50000000  0.33333333       0.005
   0.33333333  0.50000000  0.33333333       0.005
   0.50000000  0.50000000  0.33333333       0.005
  -0.33333333  0.50000000  0.33333333       0.005
  -0.16666667  0.50000000  0.33333333       0.005
  -0.00000000 -0.33333333  0.33333333       0.005
   0.16666667 -0.33333333  0.33333333       0.005
   0.33333333 -0.33333333  0.33333333       0.005
   0.50000000 -0.33333333  0.33333333       0.005
  -0.33333333 -0.33333333  0.33333333       0.005
  -0.16666667 -0.33333333  0.33333333       0.005
  -0.00000000 -0.16666667  0.33333333       0.005
   0.16666667 -0.16666667  0.33333333       0.005
   0.33333333 -0.16666667  0.33333333       0.005
   0.50000000 -0.16666667  0.33333333       0.005
  -0.33333333 -0.16666667  0.33333333       0.005
  -0.16666667 -0.16666667  0.33333333       0.005
  -0.00000000 -0.00000000  0.50000000       0.005
   0.16666667  0.00000000  0.50000000       0.005
   0.33333333  0.00000000  0.50000000       0.005
   0.50000000  0.00000000  0.50000000       0.005
  -0.33333333 -0.00000000  0.50000000       0.005
  -0.16666667 -0.00000000  0.50000000       0.005
  -0.00000000  0.16666667  0.50000000       0.005
   0.16666667  0.16666667  0.50000000       0.005
   0.33333333  0.16666667  0.50000000       0.005
   0.50000000  0.16666667  0.50000000       0.005
  -0.33333333  0.16666667  0.50000000       0.005
  -0.16666667  0.16666667  0.50000000       0.005
  -0.00000000  0.33333333  0.50000000       0.005
   0.16666667  0.33333333  0.50000000       0.005
   0.33333333  0.33333333  0.50000000       0.005
   0.50000000  0.33333333  0.50000000       0.005
  -0.33333333  0.33333333  0.50000000       0.005
  -0.16666667  0.33333333  0.50000000       0.005
   0.00000000  0.50000000  0.50000000       0.005
   0.16666667  0.50000000  0.50000000       0.005
   0.33333333  0.50000000  0.50000000       0.005
   0.50000000  0.50000000  0.50000000       0.005
  -0.33333333  0.50000000  0.50000000       0.005
  -0.16666667  0.50000000  0.50000000       0.005
  -0.00000000 -0.33333333  0.50000000       0.005
   0.16666667 -0.33333333  0.50000000       0.005
   0.33333333 -0.33333333  0.50000000       0.005
   0.50000000 -0.33333333  0.50000000       0.005
  -0.33333333 -0.33333333  0.50000000       0.005
  -0.16666667 -0.33333333  0.50000000       0.005
  -0.00000000 -0.16666667  0.50000000       0.005
   0.16666667 -0.16666667  0.50000000       0.005
   0.33333333 -0.16666667  0.50000000       0.005
   0.50000000 -0.16666667  0.50000000       0.005
  -0.33333333 -0.16666667  0.50000000       0.005
  -0.16666667 -0.16666667  0.50000000       0.005
   0.00000000  0.00000000 -0.33333333       0.005
   0.16666667  0.00000000 -0.33333333       0.005
   0.33333333  0.00000000 -0.33333333       0.005
   0.50000000  0.00000000 -0.33333333       0.005
  -0.33333333 -0.00000000 -0.33333333       0.005
  -0.16666667 -0.00000000 -0.33333333       0.005
   0.00000000  0.16666667 -0.33333333       0.005
   0.16666667  0.16666667 -0.33333333       0.005
   0.33333333  0.16666667 -0.33333333       0.005
   0.50000000  0.16666667 -0.33333333       0.005
  -0.33333333  0.16666667 -0.33333333       0.005
  -0.16666667  0.16666667 -0.33333333       0.005
   0.00000000  0.33333333 -0.33333333       0.005
   0.16666667  0.33333333 -0.33333333       0.005
   0.33333333  0.33333333 -0.33333333       0.005
   0.50000000  0.33333333 -0.33333333       0.005
  -0.33333333  0.33333333 -0.33333333       0.005
  -0.16666667  0.33333333 -0.33333333       0.005
   0.00000000  0.50000000 -0.33333333       0.005
   0.16666667  0.50000000 -0.33333333       0.005
   0.33333333  0.50000000 -0.33333333       0.005
   0.50000000  0.50000000 -0.33333333       0.005
  -0.33333333  0.50000000 -0.33333333       0.005
  -0.16666667  0.50000000 -0.33333333       0.005
   0.00000000 -0.33333333 -0.33333333       0.005
   0.16666667 -0.33333333 -0.33333333       0.005
   0.33333333 -0.33333333 -0.33333333       0.005
   0.50000000 -0.33333333 -0.33333333       0.005
  -0.33333333 -0.33333333 -0.33333333       0.005
  -0.16666667 -0.33333333 -0.33333333       0.005
   0.00000000 -0.16666667 -0.33333333       0.005
   0.16666667 -0.16666667 -0.33333333       0.005
   0.33333333 -0.16666667 -0.33333333       0.005
   0.50000000 -0.16666667 -0.33333333       0.005
  -0.33333333 -0.16666667 -0.33333333       0.005
  -0.16666667 -0.16666667 -0.33333333       0.005
   0.00000000  0.00000000 -0.16666667       0.005
   0.16666667  0.00000000 -0.16666667       0.005
   0.33333333  0.00000000 -0.16666667       0.005
   0.50000000  0.00000000 -0.16666667       0.005
  -0.33333333 -0.00000000 -0.16666667       0.005
  -0.16666667  0.00000000 -0.16666667       0.005
   0.00000000  0.16666667 -0.16666667       0.005
   0.16666667  0.16666667 -0.16666667       0.005
   0.33333333  0.16666667 -0.16666667       0.005
   0.50000000  0.16666667 -0.16666667       0.005
  -0.33333333  0.16666667 -0.16666667       0.005
  -0.16666667  0.16666667 -0.16666667       0.005
   0.00000000  0.33333333 -0.16666667       0.005
   0.16666667  0.33333333 -0.16666667       0.005
   0.33333333  0.33333333 -0.16666667       0.005
   0.50000000  0.33333333 -0.16666667       0.005
  -0.33333333  0.33333333 -0.16666667       0.005
  -0.16666667  0.33333333 -0.16666667       0.005
   0.00000000  0.50000000 -0.16666667       0.005
   0.16666667  0.50000000 -0.16666667       0.005
   0.33333333  0.50000000 -0.16666667       0.005
   0.50000000  0.50000000 -0.16666667       0.005
  -0.33333333  0.50000000 -0.16666667       0.005
  -0.16666667  0.50000000 -0.16666667       0.005
  -0.00000000 -0.33333333 -0.16666667       0.005
   0.16666667 -0.33333333 -0.16666667       0.005
   0.33333333 -0.33333333 -0.16666667       0.005
   0.50000000 -0.33333333 -0.16666667       0.005
  -0.33333333 -0.33333333 -0.16666667       0.005
  -0.16666667 -0.33333333 -0.16666667       0.005
   0.00000000 -0.16666667 -0.16666667       0.005
   0.16666667 -0.16666667 -0.16666667       0.005
   0.33333333 -0.16666667 -0.16666667       0.005
   0.50000000 -0.16666667 -0.16666667       0.005
  -0.33333333 -0.16666667 -0.16666667       0.005
  -0.16666667 -0.16666667 -0.16666667       0.005
 
 position of ions in fractional coordinates (direct lattice) 
   0.00000000  0.00000000  0.00000000
 
 position of ions in cartesian coordinates  (Angst):
   0.00000000  0.00000000  0.00000000
 
 Euler angles ALPHA=     0.0000000  BETA=     0.0000000

 transformation matrix from SAXIS to cartesian coordinates
 ---------------------------------------------------------
     1.0000000 m_x     0.0000000 m_y     0.0000000 m_z
     0.0000000 m_x     1.0000000 m_y     0.0000000 m_z
     0.0000000 m_x     0.0000000 m_y     1.0000000 m_z

 transformation matrix from cartesian coordinates to SAXIS
 ---------------------------------------------------------
     1.0000000 m_x     0.0000000 m_y     0.0000000 m_z
     0.0000000 m_x     1.0000000 m_y     0.0000000 m_z
     0.0000000 m_x     0.0000000 m_y     1.0000000 m_z




--------------------------------------------------------------------------------------------------------


 k-point  1 :   0.0000 0.0000 0.0000  plane waves:    1498
 k-point  2 :   0.1667 0.0000 0.0000  plane waves:    1570
 k-point  3 :   0.3333 0.0000 0.0000  plane waves:    1538
 k-point  4 :   0.5000 0.0000 0.0000  plane waves:    1556
 k-point  5 :  -0.3333-0.0000-0.0000  plane waves:    1538
 k-point  6 :  -0.1667-0.0000 0.0000  plane waves:    1570
 k-point  7 :   0.0000 0.1667 0.0000  plane waves:    1570
 k-point  8 :   0.1667 0.1667 0.0000  plane waves:    1570
 k-point  9 :   0.3333 0.1667 0.0000  plane waves:    1546
 k-point 10 :   0.5000 0.1667 0.0000  plane waves:    1544
 k-point 11 :  -0.3333 0.1667 0.0000  plane waves:    1546
 k-point 12 :  -0.1667 0.1667 0.0000  plane waves:    1534
 k-point 13 :   0.0000 0.3333 0.0000  plane waves:    1538
 k-point 14 :   0.1667 0.3333 0.0000  plane waves:    1546
 k-point 15 :   0.3333 0.3333 0.0000  plane waves:    1538
 k-point 16 :   0.5000 0.3333 0.0000  plane waves:    1538
 k-point 17 :  -0.3333 0.3333-0.0000  plane waves:    1552
 k-point 18 :  -0.1667 0.3333-0.0000  plane waves:    1546
 k-point 19 :   0.0000 0.5000 0.0000  plane waves:    1556
 k-point 20 :   0.1667 0.5000 0.0000  plane waves:    1544
 k-point 21 :   0.3333 0.5000 0.0000  plane waves:    1538
 k-point 22 :   0.5000 0.5000-0.0000  plane waves:    1548
 k-point 23 :  -0.3333 0.5000-0.0000  plane waves:    1538
 k-point 24 :  -0.1667 0.5000 0.0000  plane waves:    1544
 k-point 25 :  -0.0000-0.3333 0.0000  plane waves:    1538
 k-point 26 :   0.1667-0.3333 0.0000  plane waves:    1546
 k-point 27 :   0.3333-0.3333 0.0000  plane waves:    1552
 k-point 28 :   0.5000-0.3333-0.0000  plane waves:    1538
 k-point 29 :  -0.3333-0.3333-0.0000  plane waves:    1538
 k-point 30 :  -0.1667-0.3333 0.0000  plane waves:    1546
 k-point 31 :  -0.0000-0.1667-0.0000  plane waves:    1570
 k-point 32 :   0.1667-0.1667 0.0000  plane waves:    1534
 k-point 33 :   0.3333-0.1667 0.0000  plane waves:    1546
 k-point 34 :   0.5000-0.1667 0.0000  plane waves:    1544
 k-point 35 :  -0.3333-0.1667-0.0000  plane waves:    1546
 k-point 36 :  -0.1667-0.1667 0.0000  plane waves:    1570
 k-point 37 :  -0.0000-0.0000 0.1667  plane waves:    1570
 k-point 38 :   0.1667 0.0000 0.1667  plane waves:    1570
 k-point 39 :   0.3333 0.0000 0.1667  plane waves:    1546
 k-point 40 :   0.5000 0.0000 0.1667  plane waves:    1544
 k-point 41 :  -0.3333-0.0000 0.1667  plane waves:    1546
 k-point 42 :  -0.1667-0.0000 0.1667  plane waves:    1534
 k-point 43 :   0.0000 0.1667 0.1667  plane waves:    1570
 k-point 44 :   0.1667 0.1667 0.1667  plane waves:    1570
 k-point 45 :   0.3333 0.1667 0.1667  plane waves:    1534
 k-point 46 :   0.5000 0.1667 0.1667  plane waves:    1546
 k-point 47 :  -0.3333 0.1667 0.1667  plane waves:    1544
 k-point 48 :  -0.1667 0.1667 0.1667  plane waves:    1546
 k-point 49 :   0.0000 0.3333 0.1667  plane waves:    1546
 k-point 50 :   0.1667 0.3333 0.1667  plane waves:    1534
 k-point 51 :   0.3333 0.3333 0.1667  plane waves:    1546
 k-point 52 :   0.5000 0.3333 0.1667  plane waves:    1526
 k-point 53 :  -0.3333 0.3333 0.1667  plane waves:    1520
 k-point 54 :  -0.1667 0.3333 0.1667  plane waves:    1526
 k-point 55 :   0.0000 0.5000 0.1667  plane waves:    1544
 k-point 56 :   0.1667 0.5000 0.1667  plane waves:    1546
 k-point 57 :   0.3333 0.5000 0.1667  plane waves:    1526
 k-point 58 :   0.5000 0.5000 0.1667  plane waves:    1538
 k-point 59 :  -0.3333 0.5000 0.1667  plane waves:    1536
 k-point 60 :  -0.1667 0.5000 0.1667  plane waves:    1520
 k-point 61 :  -0.0000-0.3333 0.1667  plane waves:    1546
 k-point 62 :   0.1667-0.3333 0.1667  plane waves:    1544
 k-point 63 :   0.3333-0.3333 0.1667  plane waves:    1520
 k-point 64 :   0.5000-0.3333 0.1667  plane waves:    1536
 k-point 65 :  -0.3333-0.3333 0.1667  plane waves:    1538
 k-point 66 :  -0.1667-0.3333 0.1667  plane waves:    1526
 k-point 67 :  -0.0000-0.1667 0.1667  plane waves:    1534
 k-point 68 :   0.1667-0.1667 0.1667  plane waves:    1546
 k-point 69 :   0.3333-0.1667 0.1667  plane waves:    1526
 k-point 70 :   0.5000-0.1667 0.1667  plane waves:    1520
 k-point 71 :  -0.3333-0.1667 0.1667  plane waves:    1526
 k-point 72 :  -0.1667-0.1667 0.1667  plane waves:    1546
 k-point 73 :   0.0000-0.0000 0.3333  plane waves:    1538
 k-point 74 :   0.1667 0.0000 0.3333  plane waves:    1546
 k-point 75 :   0.3333 0.0000 0.3333  plane waves:    1538
 k-point 76 :   0.5000 0.0000 0.3333  plane waves:    1538
 k-point 77 :  -0.3333-0.0000 0.3333  plane waves:    1552
 k-point 78 :  -0.1667-0.0000 0.3333  plane waves:    1546
 k-point 79 :   0.0000 0.1667 0.3333  plane waves:    1546
 k-point 80 :   0.1667 0.1667 0.3333  plane waves:    1534
 k-point 81 :   0.3333 0.1667 0.3333  plane waves:    1546
 k-point 82 :   0.5000 0.1667 0.3333  plane waves:    1526
 k-point 83 :  -0.3333 0.1667 0.3333  plane waves:    1520
 k-point 84 :  -0.1667 0.1667 0.3333  plane waves:    1526
 k-point 85 :  -0.0000 0.3333 0.3333  plane waves:    1538
 k-point 86 :   0.1667 0.3333 0.3333  plane waves:    1546
 k-point 87 :   0.3333 0.3333 0.3333  plane waves:    1538
 k-point 88 :   0.5000 0.3333 0.3333  plane waves:    1546
 k-point 89 :  -0.3333 0.3333 0.3333  plane waves:    1552
 k-point 90 :  -0.1667 0.3333 0.3333  plane waves:    1538
 k-point 91 :   0.0000 0.5000 0.3333  plane waves:    1538
 k-point 92 :   0.1667 0.5000 0.3333  plane waves:    1526
 k-point 93 :   0.3333 0.5000 0.3333  plane waves:    1546
[...]
     10     -52.5187     -52.5237     -52.5230     -52.5235       0.8979       1.0000
     11     -21.8530     -21.8593     -21.8571     -21.8579       0.8429       1.0000
     12     -21.8530     -21.8593     -21.8571     -21.8579       0.8431       1.0000
     13     -11.0343     -11.0373     -11.0372     -11.0376       0.8879       1.0000
     14     -11.0343     -11.0373     -11.0372     -11.0376       0.8879       1.0000
     15      -6.7314      -6.7338      -6.7337      -6.7340       0.8965       1.0000
     16      -6.7314      -6.7338      -6.7337      -6.7340       0.8966       1.0000
     17      -6.1173      -6.1199      -6.1199      -6.1202       0.8990       1.0000
     18      -6.1173      -6.1199      -6.1199      -6.1202       0.8990       1.0000
     19       5.2340       5.2392       5.2374       5.2378       0.9124       0.0000
     20       5.2341       5.2392       5.2374       5.2378       0.9124       0.0000
     21       7.4381       7.4432       7.4426       7.4431       0.9075       0.0000
     22       7.4381       7.4432       7.4426       7.4431       0.9074       0.0000
     23       8.2542       8.2593       8.2585       8.2590       0.9074       0.0000
     24       8.2543       8.2593       8.2585       8.2590       0.9073       0.0000
     25       9.7973       9.8026       9.8018       9.8023       0.9038       0.0000
     26       9.7973       9.8026       9.8018       9.8023       0.9037       0.0000
     27      10.8399      10.8454      10.8448      10.8453       0.9007       0.0000
     28      10.8400      10.8455      10.8448      10.8453       0.9007       0.0000
     29      12.7247      12.7305      12.7297      12.7303       0.8963       0.0000
     30      12.7248      12.7306      12.7297      12.7303       0.8963       0.0000
     31      12.8875      12.8933      12.8930      12.8937       0.8956       0.0000
     32      12.8875      12.8934      12.8930      12.8937       0.8956       0.0000
     33      15.6246      15.6311      15.6308      15.6316       0.8857       0.0000
     34      15.6246      15.6311      15.6308      15.6316       0.8857       0.0000
     35      16.2024      16.2090      16.2087      16.2096       0.8843       0.0000
     36      16.2024      16.2090      16.2087      16.2096       0.8843       0.0000
     37      16.8932      16.8999      16.8990      16.8997       0.8835       0.0000
     38      16.8933      16.9000      16.8990      16.8997       0.8835       0.0000
     39      17.4907      17.4978      17.4974      17.4983       0.8795       0.0000
     40      17.4907      17.4978      17.4974      17.4983       0.8795       0.0000
 

 k-point 213 :       0.3333   -0.1667   -0.1667
  band No. DFT-energies  QP-energies  QP-e(diag)   sigma(DFT)    Z            occupation

      1     -58.2035     -58.2088     -58.2073     -58.2078       0.8901       1.0000
      2     -58.2035     -58.2088     -58.2073     -58.2078       0.8901       1.0000
      3     -58.1755     -58.1805     -58.1792     -58.1797       0.8962       1.0000
      4     -58.1754     -58.1805     -58.1792     -58.1797       0.8963       1.0000
      5     -52.5559     -52.5613     -52.5605     -52.5610       0.8914       1.0000
      6     -52.5559     -52.5613     -52.5605     -52.5610       0.8915       1.0000
      7     -52.5487     -52.5538     -52.5530     -52.5535       0.8939       1.0000
      8     -52.5487     -52.5538     -52.5530     -52.5535       0.8940       1.0000
      9     -52.5103     -52.5153     -52.5148     -52.5152       0.9007       1.0000
     10     -52.5103     -52.5153     -52.5148     -52.5152       0.9007       1.0000
     11     -21.8131     -21.8192     -21.8162     -21.8167       0.8444       1.0000
     12     -21.8131     -21.8192     -21.8162     -21.8167       0.8444       1.0000
     13     -11.1790     -11.1821     -11.1819     -11.1823       0.8845       1.0000
     14     -11.1790     -11.1820     -11.1819     -11.1823       0.8847       1.0000
     15      -7.0913      -7.0938      -7.0936      -7.0939       0.8954       1.0000
     16      -7.0913      -7.0937      -7.0936      -7.0939       0.8956       1.0000
     17      -6.2387      -6.2413      -6.2412      -6.2415       0.8975       1.0000
     18      -6.2387      -6.2413      -6.2412      -6.2415       0.8976       1.0000
     19       5.8854       5.8905       5.8891       5.8895       0.9106       0.0000
     20       5.8854       5.8905       5.8891       5.8895       0.9106       0.0000
     21       7.2333       7.2382       7.2378       7.2382       0.9089       0.0000
     22       7.2333       7.2382       7.2378       7.2382       0.9088       0.0000
     23       8.5162       8.5215       8.5210       8.5215       0.9042       0.0000
     24       8.5162       8.5215       8.5210       8.5215       0.9042       0.0000
     25       9.3773       9.3824       9.3816       9.3821       0.9052       0.0000
     26       9.3773       9.3824       9.3816       9.3820       0.9052       0.0000
     27      11.7190      11.7247      11.7241      11.7247       0.8980       0.0000
     28      11.7190      11.7247      11.7242      11.7247       0.8980       0.0000
     29      12.9676      12.9737      12.9734      12.9741       0.8933       0.0000
     30      12.9676      12.9737      12.9734      12.9741       0.8932       0.0000
     31      13.9654      13.9715      13.9706      13.9712       0.8927       0.0000
     32      13.9655      13.9716      13.9706      13.9712       0.8927       0.0000
     33      14.4968      14.5028      14.5009      14.5014       0.8937       0.0000
     34      14.4969      14.5028      14.5009      14.5014       0.8937       0.0000
     35      14.9604      14.9671      14.9668      14.9677       0.8848       0.0000
     36      14.9605      14.9672      14.9668      14.9676       0.8848       0.0000
     37      18.1463      18.1533      18.1522      18.1531       0.8792       0.0000
     38      18.1463      18.1533      18.1523      18.1531       0.8792       0.0000
     39      19.2681      19.2754      19.2751      19.2761       0.8760       0.0000
     40      19.2681      19.2754      19.2752      19.2762       0.8759       0.0000
 

 k-point 214 :       0.5000   -0.1667   -0.1667
  band No. DFT-energies  QP-energies  QP-e(diag)   sigma(DFT)    Z            occupation

      1     -58.2050     -58.2104     -58.2089     -58.2094       0.8877       1.0000
      2     -58.2050     -58.2104     -58.2089     -58.2094       0.8877       1.0000
      3     -58.1782     -58.1833     -58.1820     -58.1824       0.8948       1.0000
      4     -58.1782     -58.1833     -58.1820     -58.1824       0.8949       1.0000
      5     -52.5556     -52.5608     -52.5600     -52.5606       0.8915       1.0000
      6     -52.5555     -52.5608     -52.5600     -52.5606       0.8915       1.0000
      7     -52.5524     -52.5576     -52.5568     -52.5573       0.8925       1.0000
      8     -52.5524     -52.5576     -52.5568     -52.5573       0.8925       1.0000
      9     -52.5134     -52.5184     -52.5178     -52.5183       0.8997       1.0000
     10     -52.5134     -52.5184     -52.5178     -52.5183       0.8997       1.0000
     11     -21.8234     -21.8295     -21.8267     -21.8273       0.8436       1.0000
     12     -21.8234     -21.8295     -21.8267     -21.8273       0.8437       1.0000
     13     -11.1426     -11.1457     -11.1455     -11.1459       0.8870       1.0000
     14     -11.1426     -11.1457     -11.1455     -11.1459       0.8871       1.0000
     15      -7.0178      -7.0202      -7.0201      -7.0203       0.8961       1.0000
     16      -7.0178      -7.0202      -7.0201      -7.0203       0.8961       1.0000
     17      -6.2039      -6.2065      -6.2064      -6.2067       0.8982       1.0000
     18      -6.2039      -6.2064      -6.2064      -6.2066       0.8983       1.0000
     19       5.8845       5.8896       5.8881       5.8884       0.9109       0.0000
     20       5.8845       5.8896       5.8881       5.8884       0.9109       0.0000
     21       7.4099       7.4147       7.4144       7.4148       0.9090       0.0000
     22       7.4099       7.4147       7.4144       7.4148       0.9090       0.0000
     23       8.2645       8.2697       8.2692       8.2697       0.9052       0.0000
     24       8.2645       8.2698       8.2692       8.2697       0.9052       0.0000
     25       9.2955       9.3006       9.2998       9.3002       0.9058       0.0000
     26       9.2956       9.3006       9.2998       9.3002       0.9058       0.0000
     27      11.5316      11.5373      11.5365      11.5370       0.8993       0.0000
     28      11.5317      11.5373      11.5365      11.5370       0.8993       0.0000
     29      12.6689      12.6748      12.6745      12.6752       0.8956       0.0000
     30      12.6689      12.6748      12.6745      12.6752       0.8956       0.0000
     31      13.2710      13.2773      13.2763      13.2770       0.8928       0.0000
     32      13.2711      13.2773      13.2763      13.2770       0.8928       0.0000
     33      14.5642      14.5703      14.5692      14.5698       0.8913       0.0000
     34      14.5642      14.5703      14.5692      14.5698       0.8913       0.0000
     35      16.6364      16.6430      16.6428      16.6436       0.8839       0.0000
     36      16.6365      16.6431      16.6428      16.6436       0.8839       0.0000
     37      17.5379      17.5448      17.5435      17.5442       0.8825       0.0000
     38      17.5380      17.5449      17.5435      17.5442       0.8825       0.0000
     39      18.0842      18.0914      18.0908      18.0917       0.8782       0.0000
     40      18.0842      18.0914      18.0908      18.0917       0.8782       0.0000
 

 k-point 215 :      -0.3333   -0.1667   -0.1667
  band No. DFT-energies  QP-energies  QP-e(diag)   sigma(DFT)    Z            occupation

      1     -58.1907     -58.1960     -58.1945     -58.1950       0.8920       1.0000
      2     -58.1907     -58.1960     -58.1945     -58.1950       0.8921       1.0000
      3     -58.1738     -58.1789     -58.1776     -58.1780       0.8975       1.0000
      4     -58.1738     -58.1789     -58.1776     -58.1780       0.8975       1.0000
      5     -52.5472     -52.5525     -52.5517     -52.5522       0.8932       1.0000
      6     -52.5472     -52.5525     -52.5517     -52.5522       0.8932       1.0000
      7     -52.5279     -52.5331     -52.5325     -52.5330       0.8969       1.0000
      8     -52.5279     -52.5331     -52.5325     -52.5330       0.8969       1.0000
      9     -52.5173     -52.5223     -52.5216     -52.5220       0.8991       1.0000
     10     -52.5173     -52.5223     -52.5216     -52.5220       0.8992       1.0000
     11     -21.8770     -21.8833     -21.8809     -21.8816       0.8421       1.0000
     12     -21.8769     -21.8833     -21.8809     -21.8816       0.8421       1.0000
     13     -10.9695     -10.9725     -10.9725     -10.9729       0.8888       1.0000
     14     -10.9695     -10.9725     -10.9725     -10.9729       0.8888       1.0000
     15      -6.5816      -6.5840      -6.5839      -6.5842       0.8969       1.0000
     16      -6.5816      -6.5840      -6.5839      -6.5842       0.8970       1.0000
     17      -6.0106      -6.0132      -6.0132      -6.0135       0.8992       1.0000
     18      -6.0106      -6.0132      -6.0132      -6.0135       0.8992       1.0000
     19       4.8915       4.8968       4.8948       4.8951       0.9128       0.0000
     20       4.8915       4.8968       4.8948       4.8951       0.9127       0.0000
     21       7.8132       7.8183       7.8177       7.8182       0.9066       0.0000
     22       7.8132       7.8183       7.8177       7.8182       0.9066       0.0000
     23       8.5637       8.5687       8.5681       8.5686       0.9066       0.0000
     24       8.5637       8.5687       8.5681       8.5686       0.9066       0.0000
     25       9.8149       9.8201       9.8193       9.8197       0.9045       0.0000
     26       9.8149       9.8201       9.8193       9.8197       0.9045       0.0000
     27       9.9783       9.9836       9.9828       9.9832       0.9033       0.0000
     28       9.9783       9.9836       9.9828       9.9832       0.9033       0.0000
     29      12.1384      12.1442      12.1436      12.1441       0.8971       0.0000
     30      12.1384      12.1442      12.1436      12.1441       0.8971       0.0000
     31      13.4391      13.4453      13.4451      13.4458       0.8916       0.0000
     32      13.4391      13.4453      13.4451      13.4458       0.8916       0.0000
     33      13.5623      13.5682      13.5676      13.5682       0.8942       0.0000
     34      13.5623      13.5682      13.5676      13.5682       0.8942       0.0000
     35      15.7657      15.7723      15.7721      15.7730       0.8847       0.0000
     36      15.7657      15.7724      15.7721      15.7730       0.8847       0.0000
     37      16.8726      16.8794      16.8784      16.8792       0.8826       0.0000
     38      16.8726      16.8794      16.8784      16.8792       0.8826       0.0000
     39      17.8221      17.8291      17.8288      17.8297       0.8788       0.0000
     40      17.8221      17.8291      17.8288      17.8297       0.8788       0.0000
 

 k-point 216 :      -0.1667   -0.1667   -0.1667
  band No. DFT-energies  QP-energies  QP-e(diag)   sigma(DFT)    Z            occupation

      1     -58.1756     -58.1807     -58.1793     -58.1797       0.8964       1.0000
      2     -58.1756     -58.1807     -58.1793     -58.1798       0.8966       1.0000
      3     -58.1724     -58.1775     -58.1762     -58.1766       0.8980       1.0000
      4     -58.1724     -58.1775     -58.1762     -58.1766       0.8980       1.0000
      5     -52.5308     -52.5360     -52.5353     -52.5358       0.8955       1.0000
      6     -52.5308     -52.5360     -52.5353     -52.5358       0.8955       1.0000
      7     -52.5301     -52.5353     -52.5346     -52.5352       0.8949       1.0000
      8     -52.5301     -52.5353     -52.5346     -52.5352       0.8949       1.0000
      9     -52.5126     -52.5176     -52.5168     -52.5173       0.9013       1.0000
     10     -52.5126     -52.5176     -52.5168     -52.5173       0.9013       1.0000
     11     -21.9221     -21.9285     -21.9262     -21.9270       0.8414       1.0000
     12     -21.9221     -21.9285     -21.9262     -21.9270       0.8414       1.0000
     13     -10.8365     -10.8395     -10.8395     -10.8399       0.8896       1.0000
     14     -10.8365     -10.8395     -10.8395     -10.8399       0.8896       1.0000
     15      -6.1868      -6.1892      -6.1892      -6.1895       0.8986       1.0000
     16      -6.1868      -6.1892      -6.1892      -6.1895       0.8986       1.0000
     17      -5.8380      -5.8406      -5.8406      -5.8409       0.8994       1.0000
     18      -5.8380      -5.8406      -5.8406      -5.8409       0.8994       1.0000
     19       3.9448       3.9502       3.9480       3.9483       0.9140       0.0000
     20       3.9448       3.9502       3.9480       3.9483       0.9140       0.0000
     21       8.2802       8.2854       8.2847       8.2852       0.9057       0.0000
     22       8.2802       8.2854       8.2847       8.2852       0.9057       0.0000
     23       9.3808       9.3861       9.3851       9.3855       0.9048       0.0000
     24       9.3809       9.3862       9.3851       9.3855       0.9048       0.0000
     25       9.4101       9.4151       9.4143       9.4148       0.9058       0.0000
     26       9.4101       9.4151       9.4143       9.4148       0.9058       0.0000
     27      10.9970      11.0024      11.0015      11.0019       0.9016       0.0000
     28      10.9970      11.0024      11.0015      11.0019       0.9016       0.0000
     29      11.0431      11.0484      11.0477      11.0483       0.9014       0.0000
     30      11.0432      11.0485      11.0478      11.0483       0.9014       0.0000
     31      11.7085      11.7143      11.7142      11.7148       0.8983       0.0000
     32      11.7085      11.7143      11.7142      11.7148       0.8983       0.0000
     33      13.1603      13.1664      13.1662      13.1669       0.8929       0.0000
     34      13.1603      13.1664      13.1662      13.1669       0.8929       0.0000
     35      15.0832      15.0896      15.0893      15.0901       0.8868       0.0000
     36      15.0832      15.0896      15.0893      15.0901       0.8868       0.0000
     37      15.1954      15.2019      15.2016      15.2024       0.8863       0.0000
     38      15.1954      15.2019      15.2016      15.2024       0.8863       0.0000
     39      16.8812      16.8867      16.8865      16.8871       0.8937       0.0000
     40      16.8812      16.8867      16.8865      16.8871       0.8937       0.0000
 


--------------------------------------------------------------------------------------------------------



IMPORTANT INFORMATION: All symmetrisations will be switched off!
NOSYMM: (Re-)initialisation of all symmetry stuff for point group C_1.

   GW_DIAG:  cpu time    2.1084: real time    2.2127
    GWLOOP:  cpu time 8628.7014: real time 8633.5928
 writing wavefunctions
    --------------------------------------------
   GWTOTAL:  cpu time 8631.5318: real time 8636.8635
    4ORBIT:  cpu time    0.0000: real time    0.0000

 Spin-Orbit-Coupling matrix elements

 Ion:    1  E_soc:     -3.8411274
 l=   1
     0.0000000    -0.5193664    -0.5193654
    -0.5193664     0.0000000    -0.5193655
    -0.5193654    -0.5193655     0.0000000
 l=   2
     0.0000000    -0.0241344     0.0000000    -0.0241342    -0.0967372
    -0.0241344     0.0000000    -0.0725523    -0.0240847    -0.0241343
     0.0000000    -0.0725523     0.0000000    -0.0725528     0.0000000
    -0.0241342    -0.0240847    -0.0725528     0.0000000    -0.0241345
    -0.0967372    -0.0241343     0.0000000    -0.0241345     0.0000000
 l=   3
     0.0000000    -0.0000001     0.0000000     0.0000000     0.0000000    -0.0000001    -0.0000005
    -0.0000001     0.0000000    -0.0000001     0.0000000    -0.0000001    -0.0000002    -0.0000001
     0.0000000    -0.0000001     0.0000000    -0.0000003    -0.0000000    -0.0000001     0.0000000
     0.0000000     0.0000000    -0.0000003     0.0000000    -0.0000003     0.0000000     0.0000000
     0.0000000    -0.0000001    -0.0000000    -0.0000003     0.0000000    -0.0000001     0.0000000
    -0.0000001    -0.0000002    -0.0000001     0.0000000    -0.0000001     0.0000000    -0.0000001
    -0.0000005    -0.0000001     0.0000000     0.0000000     0.0000000    -0.0000001     0.0000000

 total amount of memory used by VASP MPI-rank0   294423. kBytes
=======================================================================

   base      :      30000. kBytes
   nonl-proj :      50394. kBytes
   fftplans  :      12947. kBytes
   grid      :      16858. kBytes
   one-center:        262. kBytes
   HF        :        547. kBytes
   nonlr-proj:        275. kBytes
   wavefun   :     183140. kBytes
   2eintegral:          0. kBytes
   fockhandle:          0. kBytes
   response  :          0. kBytes
   cacher    :          0. kBytes
 
  
  
 General timing and accounting informations for this job:
 ========================================================
  
                  Total CPU time used (sec):     8644.166
                            User time (sec):     8606.849
                          System time (sec):       37.317
                         Elapsed time (sec):     8650.704
  
                   Maximum memory used (kb):     1911220.
                   Average memory used (kb):           0.
  
                          Minor page faults:      1124619
                          Major page faults:            0
                 Voluntary context switches:       610014
