   1   1   0   0
  0.1628488E+02  0.2845115E-09  0.2845115E-09  0.2845115E-09  0.1000000E-15
  1.000000000000000E-004
  CAR 
 Og_FCC                                  
     26.28578812    -17.81409461  301    -14.54335331      1.00000000
    -17.814  0.0000E+00  0.0000E+00
    -17.667  0.0000E+00  0.0000E+00
    -17.520  0.0000E+00  0.0000E+00
    -17.373  0.0000E+00  0.0000E+00
    -17.226  0.0000E+00  0.0000E+00
    -17.079  0.0000E+00  0.0000E+00
    -16.932  0.0000E+00  0.0000E+00
    -16.785  0.0000E+00  0.0000E+00
    -16.638  0.0000E+00  0.0000E+00
    -16.491  0.0000E+00  0.0000E+00
    -16.344  0.0000E+00  0.0000E+00
    -16.197  0.0000E+00  0.0000E+00
    -16.050  0.0000E+00  0.0000E+00
    -15.903  0.0000E+00  0.0000E+00
    -15.756  0.0000E+00  0.9259E-02
    -15.609  0.0000E+00  0.9259E-02
    -15.462  0.0000E+00  0.1389E+00
    -15.315  0.0000E+00  0.1389E+00
    -15.168  0.0000E+00  0.2500E+00
    -15.021  0.0000E+00  0.5463E+00
    -14.874  0.0000E+00  0.8241E+00
    -14.727  0.0000E+00  0.1306E+01
    -14.580  0.0000E+00  0.2000E+01
    -14.433  0.0000E+00  0.2000E+01
    -14.286  0.0000E+00  0.2000E+01
    -14.139  0.0000E+00  0.2000E+01
    -13.992  0.0000E+00  0.2000E+01
    -13.845  0.0000E+00  0.2000E+01
    -13.698  0.0000E+00  0.2000E+01
    -13.551  0.0000E+00  0.2000E+01
    -13.404  0.0000E+00  0.2000E+01
    -13.257  0.0000E+00  0.2000E+01
    -13.110  0.0000E+00  0.2000E+01
    -12.963  0.0000E+00  0.2000E+01
    -12.816  0.0000E+00  0.2000E+01
    -12.669  0.0000E+00  0.2000E+01
    -12.522  0.0000E+00  0.2000E+01
    -12.375  0.0000E+00  0.2000E+01
    -12.228  0.0000E+00  0.2000E+01
    -12.081  0.0000E+00  0.2000E+01
    -11.934  0.0000E+00  0.2000E+01
    -11.787  0.0000E+00  0.2000E+01
    -11.640  0.0000E+00  0.2000E+01
    -11.493  0.0000E+00  0.2000E+01
    -11.346  0.0000E+00  0.2000E+01
    -11.199  0.0000E+00  0.2000E+01
    -11.052  0.0000E+00  0.2000E+01
    -10.905  0.0000E+00  0.2000E+01
    -10.758  0.0000E+00  0.2000E+01
    -10.611  0.0000E+00  0.2000E+01
    -10.464  0.0000E+00  0.2000E+01
    -10.317  0.0000E+00  0.2000E+01
    -10.170  0.0000E+00  0.2000E+01
    -10.023  0.0000E+00  0.2000E+01
     -9.876  0.0000E+00  0.2000E+01
     -9.729  0.0000E+00  0.2000E+01
     -9.582  0.0000E+00  0.2000E+01
     -9.435  0.0000E+00  0.2000E+01
     -9.288  0.0000E+00  0.2000E+01
     -9.141  0.0000E+00  0.2000E+01
     -8.994  0.0000E+00  0.2000E+01
     -8.847  0.0000E+00  0.2000E+01
     -8.700  0.0000E+00  0.2000E+01
     -8.553  0.0000E+00  0.2000E+01
     -8.406  0.0000E+00  0.2000E+01
     -8.259  0.0000E+00  0.2000E+01
     -8.112  0.0000E+00  0.2000E+01
     -7.965  0.0000E+00  0.2000E+01
     -7.818  0.0000E+00  0.2000E+01
     -7.671  0.0000E+00  0.2000E+01
     -7.524  0.0000E+00  0.2000E+01
     -7.377  0.0000E+00  0.2000E+01
     -7.230  0.0000E+00  0.2000E+01
     -7.083  0.0000E+00  0.2000E+01
     -6.936  0.0000E+00  0.2000E+01
     -6.789  0.0000E+00  0.2000E+01
     -6.642  0.0000E+00  0.2000E+01
     -6.495  0.0000E+00  0.2000E+01
     -6.348  0.0000E+00  0.2000E+01
     -6.201  0.0000E+00  0.2000E+01
     -6.054  0.0000E+00  0.2000E+01
     -5.907  0.0000E+00  0.2000E+01
     -5.760  0.0000E+00  0.2000E+01
     -5.613  0.0000E+00  0.2000E+01
     -5.466  0.0000E+00  0.2000E+01
     -5.319  0.0000E+00  0.2000E+01
     -5.172  0.0000E+00  0.2000E+01
     -5.025  0.0000E+00  0.2000E+01
     -4.878  0.0000E+00  0.2000E+01
     -4.731  0.0000E+00  0.2000E+01
     -4.584  0.0000E+00  0.2000E+01
     -4.437  0.0000E+00  0.2000E+01
     -4.290  0.0000E+00  0.2000E+01
     -4.143  0.0000E+00  0.2000E+01
     -3.996  0.0000E+00  0.2000E+01
     -3.849  0.0000E+00  0.2000E+01
     -3.702  0.0000E+00  0.2000E+01
     -3.555  0.0000E+00  0.2000E+01
     -3.408  0.0000E+00  0.2000E+01
     -3.261  0.0000E+00  0.2000E+01
     -3.114  0.0000E+00  0.2000E+01
     -2.967  0.0000E+00  0.2000E+01
     -2.820  0.0000E+00  0.2000E+01
     -2.673  0.0000E+00  0.2000E+01
     -2.526  0.0000E+00  0.2000E+01
     -2.379  0.0000E+00  0.2000E+01
     -2.232  0.0000E+00  0.2000E+01
     -2.085  0.0000E+00  0.2000E+01
     -1.938  0.0000E+00  0.2000E+01
     -1.791  0.0000E+00  0.2000E+01
     -1.644  0.0000E+00  0.2000E+01
     -1.497  0.0000E+00  0.2000E+01
     -1.350  0.0000E+00  0.2000E+01
     -1.203  0.0000E+00  0.2000E+01
     -1.056  0.0000E+00  0.2000E+01
     -0.909  0.0000E+00  0.2000E+01
     -0.762  0.0000E+00  0.2000E+01
     -0.615  0.0000E+00  0.2000E+01
     -0.468  0.0000E+00  0.2000E+01
     -0.321  0.0000E+00  0.2000E+01
     -0.174  0.0000E+00  0.2000E+01
     -0.027  0.0000E+00  0.2000E+01
      0.120  0.0000E+00  0.2000E+01
      0.267  0.0000E+00  0.2000E+01
      0.414  0.0000E+00  0.2000E+01
      0.561  0.0000E+00  0.2000E+01
      0.708  0.0000E+00  0.2000E+01
      0.855  0.0000E+00  0.2000E+01
      1.002  0.0000E+00  0.2000E+01
      1.149  0.0000E+00  0.2000E+01
      1.296  0.0000E+00  0.2000E+01
      1.443  0.0000E+00  0.2000E+01
      1.590  0.0000E+00  0.2000E+01
      1.737  0.0000E+00  0.2000E+01
      1.884  0.0000E+00  0.2000E+01
      2.031  0.0000E+00  0.2000E+01
      2.178  0.0000E+00  0.2000E+01
      2.325  0.0000E+00  0.2000E+01
      2.472  0.0000E+00  0.2000E+01
      2.619  0.0000E+00  0.2000E+01
      2.766  0.0000E+00  0.2000E+01
      2.913  0.0000E+00  0.2000E+01
      3.060  0.0000E+00  0.2000E+01
      3.207  0.0000E+00  0.2037E+01
      3.354  0.0000E+00  0.2111E+01
      3.501  0.0000E+00  0.2222E+01
      3.648  0.0000E+00  0.2574E+01
      3.795  0.0000E+00  0.3028E+01
      3.942  0.0000E+00  0.3028E+01
      4.089  0.0000E+00  0.3083E+01
      4.236  0.0000E+00  0.3306E+01
      4.383  0.0000E+00  0.3306E+01
      4.530  0.0000E+00  0.3306E+01
      4.677  0.0000E+00  0.3306E+01
      4.824  0.0000E+00  0.3528E+01
      4.971  0.0000E+00  0.3528E+01
      5.118  0.0000E+00  0.3556E+01
      5.265  0.0000E+00  0.3778E+01
      5.412  0.0000E+00  0.3778E+01
      5.559  0.0000E+00  0.3889E+01
      5.706  0.0000E+00  0.3889E+01
      5.853  0.0000E+00  0.3889E+01
      6.000  0.7559E+00  0.4000E+01
      6.147  0.0000E+00  0.4000E+01
      6.294  0.0000E+00  0.4000E+01
      6.441  0.0000E+00  0.4000E+01
      6.588  0.0000E+00  0.4000E+01
      6.735  0.0000E+00  0.4000E+01
      6.882  0.0000E+00  0.4000E+01
      7.029  0.0000E+00  0.4111E+01
      7.176  0.0000E+00  0.4111E+01
      7.323  0.0000E+00  0.4111E+01
      7.470  0.0000E+00  0.4111E+01
      7.617  0.0000E+00  0.4111E+01
      7.764  0.0000E+00  0.4111E+01
      7.911  0.0000E+00  0.4333E+01
      8.058  0.0000E+00  0.4333E+01
      8.205  0.0000E+00  0.4333E+01
      8.352  0.0000E+00  0.4333E+01
      8.499  0.0000E+00  0.4444E+01
      8.646  0.0000E+00  0.4444E+01
      8.793  0.0000E+00  0.4444E+01
      8.940  0.0000E+00  0.4444E+01
      9.087  0.0000E+00  0.4556E+01
      9.234  0.0000E+00  0.4778E+01
      9.381  0.0000E+00  0.5000E+01
      9.528  0.0000E+00  0.5000E+01
      9.675  0.0000E+00  0.5000E+01
      9.822  0.0000E+00  0.5222E+01
      9.969  0.0000E+00  0.5222E+01
     10.116  0.1022E-05  0.5472E+01
     10.263  0.0000E+00  0.5509E+01
     10.410  0.0000E+00  0.5509E+01
     10.557  0.0000E+00  0.5509E+01
     10.704  0.0000E+00  0.5509E+01
     10.851  0.0000E+00  0.5509E+01
     10.998  0.0000E+00  0.5509E+01
     11.145  0.0000E+00  0.5509E+01
     11.292  0.0000E+00  0.5731E+01
     11.439  0.0000E+00  0.5731E+01
     11.586  0.0000E+00  0.5731E+01
     11.733  0.0000E+00  0.5806E+01
     11.880  0.0000E+00  0.5806E+01
     12.027  0.0000E+00  0.5806E+01
     12.174  0.0000E+00  0.5806E+01
     12.321  0.0000E+00  0.5806E+01
     12.468  0.0000E+00  0.5806E+01
     12.615  0.0000E+00  0.6250E+01
     12.762  0.0000E+00  0.6250E+01
     12.909  0.0000E+00  0.6250E+01
     13.056  0.0000E+00  0.6472E+01
     13.203  0.3747E+00  0.6638E+01
     13.350  0.0000E+00  0.6639E+01
     13.497  0.0000E+00  0.6750E+01
     13.644  0.0000E+00  0.6750E+01
     13.791  0.0000E+00  0.6750E+01
     13.938  0.1857E-13  0.6806E+01
     14.085  0.0000E+00  0.7028E+01
     14.232  0.0000E+00  0.7139E+01
     14.379  0.0000E+00  0.7139E+01
     14.526  0.0000E+00  0.7139E+01
     14.673  0.0000E+00  0.7139E+01
     14.820  0.0000E+00  0.7139E+01
     14.967  0.0000E+00  0.7139E+01
     15.114  0.0000E+00  0.7139E+01
     15.261  0.0000E+00  0.7250E+01
     15.408  0.0000E+00  0.7278E+01
     15.555  0.0000E+00  0.7278E+01
     15.702  0.0000E+00  0.7278E+01
     15.849  0.0000E+00  0.7500E+01
     15.996  0.0000E+00  0.7722E+01
     16.143  0.0000E+00  0.8241E+01
     16.290  0.0000E+00  0.8241E+01
     16.437  0.0000E+00  0.8296E+01
     16.584  0.0000E+00  0.8296E+01
     16.731  0.5147E-05  0.8296E+01
     16.878  0.0000E+00  0.8519E+01
     17.025  0.0000E+00  0.8519E+01
     17.172  0.0000E+00  0.8630E+01
     17.319  0.0000E+00  0.8630E+01
     17.466  0.0000E+00  0.8630E+01
     17.613  0.0000E+00  0.8630E+01
     17.760  0.0000E+00  0.9074E+01
     17.907  0.1512E+01  0.9519E+01
     18.054  0.0000E+00  0.9519E+01
     18.201  0.0000E+00  0.9519E+01
     18.348  0.0000E+00  0.9519E+01
     18.495  0.0000E+00  0.9519E+01
     18.642  0.0000E+00  0.9593E+01
     18.789  0.0000E+00  0.9741E+01
     18.936  0.0000E+00  0.9741E+01
     19.083  0.0000E+00  0.9741E+01
     19.230  0.0000E+00  0.9741E+01
     19.377  0.0000E+00  0.9741E+01
     19.524  0.0000E+00  0.9796E+01
     19.671  0.0000E+00  0.9944E+01
     19.818  0.0000E+00  0.1017E+02
     19.965  0.0000E+00  0.1017E+02
     20.112  0.0000E+00  0.1017E+02
     20.259  0.0000E+00  0.1028E+02
     20.406  0.0000E+00  0.1028E+02
     20.553  0.0000E+00  0.1028E+02
     20.700  0.1138E-08  0.1028E+02
     20.847  0.0000E+00  0.1031E+02
     20.994  0.0000E+00  0.1031E+02
     21.141  0.0000E+00  0.1031E+02
     21.288  0.0000E+00  0.1053E+02
     21.435  0.0000E+00  0.1053E+02
     21.582  0.0000E+00  0.1092E+02
     21.729  0.0000E+00  0.1092E+02
     21.876  0.0000E+00  0.1114E+02
     22.023  0.1731E-07  0.1114E+02
     22.170  0.0000E+00  0.1140E+02
     22.317  0.0000E+00  0.1140E+02
     22.464  0.0000E+00  0.1140E+02
     22.611  0.0000E+00  0.1162E+02
     22.758  0.0000E+00  0.1162E+02
     22.905  0.0000E+00  0.1162E+02
     23.052  0.0000E+00  0.1162E+02
     23.199  0.0000E+00  0.1173E+02
     23.346  0.2445E-01  0.1174E+02
     23.493  0.0000E+00  0.1181E+02
     23.640  0.0000E+00  0.1192E+02
     23.787  0.0000E+00  0.1192E+02
     23.934  0.0000E+00  0.1192E+02
     24.081  0.0000E+00  0.1193E+02
     24.228  0.0000E+00  0.1193E+02
     24.375  0.0000E+00  0.1200E+02
     24.522  0.0000E+00  0.1200E+02
     24.669  0.0000E+00  0.1200E+02
     24.816  0.0000E+00  0.1200E+02
     24.963  0.0000E+00  0.1200E+02
     25.110  0.0000E+00  0.1200E+02
     25.257  0.0000E+00  0.1200E+02
     25.404  0.0000E+00  0.1200E+02
     25.551  0.0000E+00  0.1200E+02
     25.698  0.0000E+00  0.1200E+02
     25.845  0.0000E+00  0.1200E+02
     25.992  0.0000E+00  0.1200E+02
     26.139  0.0000E+00  0.1200E+02
     26.286  0.0000E+00  0.1200E+02
