    1    1    1    1
  0.1628488E+02  0.2845115E-09  0.2845115E-09  0.2845115E-09  0.1000000E-15
  1.000000000000000E-004
  CAR 
 Og_FCC                                  
      2    112      6
 
  0.0000000E+00  0.0000000E+00  0.0000000E+00  0.4629630E-02
    1      -15.809554   1.000000
    2        3.749824   0.000000
    3       20.703818   0.000000
    4       20.703818   0.000000
    5       20.703870   0.000000
    6       24.011008   0.000000
 
  0.1666667E+00 -0.1387779E-16  0.1387779E-16  0.9259259E-02
    1      -15.590168   1.000000
    2        3.575091   0.000000
    3       16.132907   0.000000
    4       19.550965   0.000000
    5       19.551017   0.000000
    6       24.281172   0.000000
 
  0.3333333E+00 -0.5551115E-16  0.4163336E-16  0.9259259E-02
    1      -15.119417   1.000000
    2        3.254989   0.000000
    3       11.718947   0.000000
    4       18.666187   0.000000
    5       18.666236   0.000000
    6       23.346984   0.000000
 
  0.5000000E+00 -0.5551115E-16  0.0000000E+00  0.4629630E-02
    1      -14.850692   1.000000
    2        3.107249   0.000000
    3       10.118972   0.000000
    4       18.530699   0.000000
    5       18.530740   0.000000
    6       22.033559   0.000000
 
  0.0000000E+00  0.1666667E+00 -0.6938894E-17  0.9259259E-02
    1      -15.590168   1.000000
    2        3.575091   0.000000
    3       16.132907   0.000000
    4       19.550965   0.000000
    5       19.551017   0.000000
    6       24.281172   0.000000
 
  0.1666667E+00  0.1666667E+00  0.1387779E-16  0.9259259E-02
    1      -15.522251   1.000000
    2        3.589997   0.000000
    3       17.132790   0.000000
    4       17.132836   0.000000
    5       19.440212   0.000000
    6       21.491440   0.000000
 
  0.3333333E+00  0.1666667E+00  0.2775558E-16  0.9259259E-02
    1      -15.143099   1.000000
    2        3.554077   0.000000
    3       12.549977   0.000000
    4       15.906672   0.000000
    5       17.894973   0.000000
    6       21.220806   0.000000
 
  0.5000000E+00  0.1666667E+00  0.0000000E+00  0.9259259E-02
    1      -14.810648   1.000000
    2        3.746777   0.000000
    3        9.360255   0.000000
    4       16.014376   0.000000
    5       16.110166   0.000000
    6       21.508789   0.000000
 
 -0.3333333E+00  0.1666667E+00 -0.4163336E-16  0.9259259E-02
    1      -14.892160   1.000000
    2        3.672934   0.000000
    3        9.716404   0.000000
    4       15.741622   0.000000
    5       17.700587   0.000000
    6       21.852573   0.000000
 
 -0.1666667E+00  0.1666667E+00 -0.8680612E-17  0.9259259E-02
    1      -15.298489   1.000000
    2        3.483273   0.000000
    3       13.077335   0.000000
    4       16.753577   0.000000
    5       20.160570   0.000000
    6       23.602500   0.000000
 
  0.0000000E+00  0.3333333E+00  0.0000000E+00  0.9259259E-02
    1      -15.119417   1.000000
    2        3.254989   0.000000
    3       11.718947   0.000000
    4       18.666187   0.000000
    5       18.666236   0.000000
    6       23.347003   0.000000
 
  0.1666667E+00  0.3333333E+00  0.0000000E+00  0.9259259E-02
    1      -15.143099   1.000000
    2        3.554077   0.000000
    3       12.549977   0.000000
    4       15.906672   0.000000
    5       17.894973   0.000000
    6       21.220806   0.000000
 
  0.3333333E+00  0.3333333E+00  0.5551115E-16  0.9259259E-02
    1      -14.930140   1.000000
    2        3.949899   0.000000
    3       13.827141   0.000000
    4       14.196726   0.000000
    5       14.196775   0.000000
    6       16.358543   0.000000
 
  0.5000000E+00  0.3333333E+00  0.5551115E-16  0.9259259E-02
    1      -14.692383   1.000000
    2        4.809950   0.000000
    3        9.211252   0.000000
    4       12.941284   0.000000
    5       13.943240   0.000000
    6       19.804006   0.000000
 
 -0.3333333E+00  0.3333333E+00 -0.1736122E-16  0.9259259E-02
    1      -14.657352   1.000000
    2        5.427555   0.000000
    3        7.017074   0.000000
    4       13.404918   0.000000
    5       15.163439   0.000000
    6       23.140463   0.000000
 
 -0.1666667E+00  0.3333333E+00  0.2081668E-16  0.9259259E-02
    1      -14.892160   1.000000
    2        3.672934   0.000000
    3        9.716404   0.000000
    4       15.741622   0.000000
    5       17.700587   0.000000
    6       21.852573   0.000000
 
  0.0000000E+00  0.5000000E+00  0.0000000E+00  0.4629630E-02
    1      -14.850692   1.000000
    2        3.107249   0.000000
    3       10.118972   0.000000
    4       18.530699   0.000000
    5       18.530740   0.000000
    6       22.033476   0.000000
 
  0.1666667E+00  0.5000000E+00  0.2775558E-16  0.9259259E-02
    1      -14.810648   1.000000
    2        3.746777   0.000000
    3        9.360255   0.000000
    4       16.014376   0.000000
    5       16.110166   0.000000
    6       21.508789   0.000000
 
  0.3333333E+00  0.5000000E+00  0.1110223E-15  0.9259259E-02
    1      -14.692383   1.000000
    2        4.809950   0.000000
    3        9.211252   0.000000
    4       12.941284   0.000000
    5       13.943240   0.000000
    6       19.804006   0.000000
 
  0.5000000E+00  0.5000000E+00  0.5551115E-16  0.4629630E-02
    1      -14.610378   1.000000
    2        4.977818   0.000000
    3       10.057269   0.000000
    4       13.201110   0.000000
    5       13.201160   0.000000
    6       15.329351   0.000000
 
  0.0000000E+00  0.0000000E+00  0.1666667E+00  0.9259259E-02
    1      -15.590168   1.000000
    2        3.575091   0.000000
    3       16.132907   0.000000
    4       19.550965   0.000000
    5       19.551017   0.000000
    6       24.281172   0.000000
 
  0.1666667E+00 -0.1387779E-16  0.1666667E+00  0.9259259E-02
    1      -15.522251   1.000000
    2        3.589997   0.000000
    3       17.132790   0.000000
    4       17.132836   0.000000
    5       19.440212   0.000000
    6       21.491440   0.000000
 
  0.3333333E+00 -0.5551115E-16  0.1666667E+00  0.9259259E-02
    1      -15.143099   1.000000
    2        3.554077   0.000000
    3       12.549977   0.000000
    4       15.906672   0.000000
    5       17.894973   0.000000
    6       21.220806   0.000000
 
  0.5000000E+00 -0.5551115E-16  0.1666667E+00  0.9259259E-02
    1      -14.810648   1.000000
    2        3.746777   0.000000
    3        9.360255   0.000000
    4       16.014376   0.000000
    5       16.110166   0.000000
    6       21.508789   0.000000
 
 -0.3333333E+00  0.5551115E-16  0.1666667E+00  0.9259259E-02
    1      -14.892160   1.000000
    2        3.672934   0.000000
    3        9.716404   0.000000
    4       15.741622   0.000000
    5       17.700587   0.000000
    6       21.852572   0.000000
 
 -0.1666667E+00  0.1387779E-16  0.1666667E+00  0.9259259E-02
    1      -15.298489   1.000000
    2        3.483273   0.000000
    3       13.077335   0.000000
    4       16.753577   0.000000
    5       20.160570   0.000000
    6       23.602500   0.000000
 
  0.0000000E+00  0.1666667E+00  0.1666667E+00  0.9259259E-02
    1      -15.522251   1.000000
    2        3.589997   0.000000
    3       17.132790   0.000000
    4       17.132836   0.000000
    5       19.440212   0.000000
    6       21.491440   0.000000
 
  0.1666667E+00  0.1666667E+00  0.1666667E+00  0.9259259E-02
    1      -15.590167   1.000000
    2        3.575086   0.000000
    3       16.132953   0.000000
    4       19.550967   0.000000
    5       19.550968   0.000000
    6       24.281248   0.000000
 
  0.3333333E+00  0.1666667E+00  0.1666667E+00  0.9259259E-02
    1      -15.298488   1.000000
    2        3.483265   0.000000
    3       13.077337   0.000000
    4       16.753627   0.000000
    5       20.160546   0.000000
    6       23.602558   0.000000
 
  0.5000000E+00  0.1666667E+00  0.1666667E+00  0.9259259E-02
    1      -14.892160   1.000000
    2        3.672929   0.000000
    3        9.716393   0.000000
    4       15.741692   0.000000
    5       17.700548   0.000000
    6       21.852601   0.000000
 
 -0.3333333E+00  0.1666667E+00  0.1666667E+00  0.9259259E-02
    1      -14.810648   1.000000
    2        3.746779   0.000000
    3        9.360247   0.000000
    4       16.014435   0.000000
    5       16.110121   0.000000
    6       21.508809   0.000000
 
 -0.1666667E+00  0.1666667E+00  0.1666667E+00  0.9259259E-02
    1      -15.143099   1.000000
    2        3.554081   0.000000
    3       12.549982   0.000000
    4       15.906624   0.000000
    5       17.895017   0.000000
    6       21.220812   0.000000
 
  0.0000000E+00  0.3333333E+00  0.1666667E+00  0.9259259E-02
    1      -15.143099   1.000000
    2        3.554077   0.000000
    3       12.549977   0.000000
    4       15.906672   0.000000
    5       17.894973   0.000000
    6       21.220806   0.000000
 
  0.1666667E+00  0.3333333E+00  0.1666667E+00  0.9259259E-02
    1      -15.298488   1.000000
    2        3.483265   0.000000
    3       13.077337   0.000000
    4       16.753627   0.000000
    5       20.160546   0.000000
    6       23.602558   0.000000
 
  0.3333333E+00  0.3333333E+00  0.1666667E+00  0.9259259E-02
    1      -15.143099   1.000000
    2        3.554067   0.000000
    3       12.550016   0.000000
    4       15.906625   0.000000
    5       17.895006   0.000000
    6       21.220831   0.000000
 
  0.5000000E+00  0.3333333E+00  0.1666667E+00  0.9259259E-02
    1      -14.839039   1.000000
    2        4.154421   0.000000
    3       10.053838   0.000000
    4       12.537111   0.000000
    5       17.738774   0.000000
    6       22.519879   0.000000
 
 -0.3333333E+00  0.3333333E+00  0.1666667E+00  0.9259259E-02
    1      -14.674555   1.000000
    2        5.133757   0.000000
    3        7.889346   0.000000
    4       11.278863   0.000000
    5       17.898872   0.000000
    6       22.026740   0.000000
 
 -0.1666667E+00  0.3333333E+00  0.1666667E+00  0.9259259E-02
    1      -14.839040   1.000000
    2        4.154433   0.000000
    3       10.053837   0.000000
    4       12.537084   0.000000
    5       17.738779   0.000000
    6       22.519881   0.000000
 
  0.0000000E+00  0.5000000E+00  0.1666667E+00  0.9259259E-02
    1      -14.810648   1.000000
    2        3.746777   0.000000
    3        9.360255   0.000000
    4       16.014376   0.000000
    5       16.110166   0.000000
    6       21.508789   0.000000
 
  0.1666667E+00  0.5000000E+00  0.1666667E+00  0.9259259E-02
    1      -14.892160   1.000000
    2        3.672929   0.000000
    3        9.716393   0.000000
    4       15.741692   0.000000
    5       17.700548   0.000000
    6       21.852601   0.000000
 
  0.3333333E+00  0.5000000E+00  0.1666667E+00  0.9259259E-02
    1      -14.839039   1.000000
    2        4.154421   0.000000
    3       10.053838   0.000000
    4       12.537111   0.000000
    5       17.738774   0.000000
    6       22.519879   0.000000
 
  0.5000000E+00  0.5000000E+00  0.1666667E+00  0.9259259E-02
    1      -14.692383   1.000000
    2        4.809940   0.000000
    3        9.211254   0.000000
    4       12.941347   0.000000
    5       13.943191   0.000000
    6       19.804012   0.000000
 
 -0.3333333E+00  0.5000000E+00  0.1666667E+00  0.9259259E-02
    1      -14.624890   1.000000
    2        5.996869   0.000000
    3        8.476649   0.000000
    4        9.037678   0.000000
    5       16.733889   0.000000
    6       21.523411   0.000000
 
 -0.1666667E+00  0.5000000E+00  0.1666667E+00  0.9259259E-02
    1      -14.674555   1.000000
    2        5.133755   0.000000
    3        7.889366   0.000000
    4       11.278838   0.000000
    5       17.898868   0.000000
    6       22.026748   0.000000
 
  0.0000000E+00 -0.3333333E+00  0.1666667E+00  0.9259259E-02
    1      -14.892160   1.000000
    2        3.672934   0.000000
    3        9.716404   0.000000
    4       15.741622   0.000000
    5       17.700587   0.000000
    6       21.852573   0.000000
 
  0.1666667E+00 -0.3333333E+00  0.1666667E+00  0.9259259E-02
    1      -14.810648   1.000000
    2        3.746779   0.000000
    3        9.360247   0.000000
    4       16.014435   0.000000
    5       16.110121   0.000000
    6       21.508809   0.000000
 
  0.3333333E+00 -0.3333333E+00  0.1666667E+00  0.9259259E-02
    1      -14.674555   1.000000
    2        5.133757   0.000000
    3        7.889346   0.000000
    4       11.278863   0.000000
    5       17.898872   0.000000
    6       22.026740   0.000000
 
  0.5000000E+00 -0.3333333E+00  0.1666667E+00  0.9259259E-02
    1      -14.624890   1.000000
    2        5.996869   0.000000
    3        8.476649   0.000000
    4        9.037678   0.000000
    5       16.733889   0.000000
    6       21.523411   0.000000
 
 -0.3333333E+00 -0.3333333E+00  0.1666667E+00  0.9259259E-02
    1      -14.692383   1.000000
    2        4.809955   0.000000
    3        9.211226   0.000000
    4       12.941356   0.000000
    5       13.943190   0.000000
    6       19.804009   0.000000
 
 -0.1666667E+00 -0.3333333E+00  0.1666667E+00  0.9259259E-02
    1      -14.839040   1.000000
    2        4.154433   0.000000
    3       10.053837   0.000000
    4       12.537084   0.000000
    5       17.738779   0.000000
    6       22.519881   0.000000
 
  0.0000000E+00 -0.1666667E+00  0.1666667E+00  0.9259259E-02
    1      -15.298489   1.000000
    2        3.483273   0.000000
    3       13.077335   0.000000
    4       16.753577   0.000000
    5       20.160570   0.000000
    6       23.602500   0.000000
 
  0.1666667E+00 -0.1666667E+00  0.1666667E+00  0.9259259E-02
    1      -15.143099   1.000000
    2        3.554081   0.000000
    3       12.549982   0.000000
    4       15.906624   0.000000
    5       17.895017   0.000000
    6       21.220812   0.000000
 
  0.3333333E+00 -0.1666667E+00  0.1666667E+00  0.9259259E-02
    1      -14.839040   1.000000
    2        4.154433   0.000000
    3       10.053837   0.000000
    4       12.537084   0.000000
    5       17.738779   0.000000
    6       22.519881   0.000000
 
  0.5000000E+00 -0.1666667E+00  0.1666667E+00  0.9259259E-02
    1      -14.674555   1.000000
    2        5.133755   0.000000
    3        7.889366   0.000000
    4       11.278838   0.000000
    5       17.898869   0.000000
    6       22.026748   0.000000
 
 -0.3333333E+00 -0.1666667E+00  0.1666667E+00  0.9259259E-02
    1      -14.839040   1.000000
    2        4.154433   0.000000
    3       10.053837   0.000000
    4       12.537084   0.000000
    5       17.738779   0.000000
    6       22.519881   0.000000
 
 -0.1666667E+00 -0.1666667E+00  0.1666667E+00  0.9259259E-02
    1      -15.143099   1.000000
    2        3.554081   0.000000
    3       12.549982   0.000000
    4       15.906624   0.000000
    5       17.895017   0.000000
    6       21.220812   0.000000
 
  0.0000000E+00  0.0000000E+00  0.3333333E+00  0.9259259E-02
    1      -15.119417   1.000000
    2        3.254989   0.000000
    3       11.718947   0.000000
    4       18.666187   0.000000
    5       18.666236   0.000000
    6       23.346985   0.000000
 
  0.1666667E+00 -0.1387779E-16  0.3333333E+00  0.9259259E-02
    1      -15.143099   1.000000
    2        3.554077   0.000000
    3       12.549977   0.000000
    4       15.906672   0.000000
    5       17.894973   0.000000
    6       21.220806   0.000000
 
  0.3333333E+00 -0.5551115E-16  0.3333333E+00  0.9259259E-02
    1      -14.930140   1.000000
    2        3.949899   0.000000
    3       13.827141   0.000000
    4       14.196726   0.000000
    5       14.196775   0.000000
    6       16.358543   0.000000
 
  0.5000000E+00 -0.5551115E-16  0.3333333E+00  0.9259259E-02
    1      -14.692383   1.000000
    2        4.809950   0.000000
    3        9.211252   0.000000
    4       12.941284   0.000000
    5       13.943240   0.000000
    6       19.804006   0.000000
 
 -0.3333333E+00  0.5551115E-16  0.3333333E+00  0.9259259E-02
    1      -14.657352   1.000000
    2        5.427555   0.000000
    3        7.017074   0.000000
    4       13.404918   0.000000
    5       15.163439   0.000000
    6       23.140462   0.000000
 
 -0.1666667E+00  0.1387779E-16  0.3333333E+00  0.9259259E-02
    1      -14.892160   1.000000
    2        3.672934   0.000000
    3        9.716404   0.000000
    4       15.741622   0.000000
    5       17.700587   0.000000
    6       21.852572   0.000000
 
  0.0000000E+00  0.1666667E+00  0.3333333E+00  0.9259259E-02
    1      -15.143099   1.000000
    2        3.554077   0.000000
    3       12.549977   0.000000
    4       15.906672   0.000000
    5       17.894973   0.000000
    6       21.220806   0.000000
 
  0.1666667E+00  0.1666667E+00  0.3333333E+00  0.9259259E-02
    1      -15.298488   1.000000
    2        3.483265   0.000000
    3       13.077337   0.000000
    4       16.753627   0.000000
    5       20.160546   0.000000
    6       23.602558   0.000000
 
  0.3333333E+00  0.1666667E+00  0.3333333E+00  0.9259259E-02
    1      -15.143099   1.000000
    2        3.554067   0.000000
    3       12.550016   0.000000
    4       15.906625   0.000000
    5       17.895006   0.000000
    6       21.220831   0.000000
 
  0.5000000E+00  0.1666667E+00  0.3333333E+00  0.9259259E-02
    1      -14.839039   1.000000
    2        4.154421   0.000000
    3       10.053838   0.000000
    4       12.537111   0.000000
    5       17.738774   0.000000
    6       22.519879   0.000000
 
 -0.3333333E+00  0.1666667E+00  0.3333333E+00  0.9259259E-02
    1      -14.674555   1.000000
    2        5.133757   0.000000
    3        7.889346   0.000000
    4       11.278863   0.000000
    5       17.898872   0.000000
    6       22.026740   0.000000
 
 -0.1666667E+00  0.1666667E+00  0.3333333E+00  0.9259259E-02
    1      -14.839040   1.000000
    2        4.154433   0.000000
    3       10.053837   0.000000
    4       12.537084   0.000000
    5       17.738779   0.000000
    6       22.519881   0.000000
 
  0.0000000E+00  0.3333333E+00  0.3333333E+00  0.9259259E-02
    1      -14.930140   1.000000
    2        3.949899   0.000000
    3       13.827141   0.000000
    4       14.196726   0.000000
    5       14.196775   0.000000
    6       16.358543   0.000000
 
  0.1666667E+00  0.3333333E+00  0.3333333E+00  0.9259259E-02
    1      -15.143099   1.000000
    2        3.554067   0.000000
    3       12.550016   0.000000
    4       15.906625   0.000000
    5       17.895006   0.000000
    6       21.220831   0.000000
 
  0.3333333E+00  0.3333333E+00  0.3333333E+00  0.9259259E-02
    1      -15.119418   1.000000
    2        3.254969   0.000000
    3       11.719004   0.000000
    4       18.666194   0.000000
    5       18.666194   0.000000
    6       23.346912   0.000000
 
  0.5000000E+00  0.3333333E+00  0.3333333E+00  0.9259259E-02
    1      -14.892160   1.000000
    2        3.672910   0.000000
    3        9.716436   0.000000
    4       15.741659   0.000000
    5       17.700550   0.000000
    6       21.852636   0.000000
 
 -0.3333333E+00  0.3333333E+00  0.3333333E+00  0.9259259E-02
    1      -14.657352   1.000000
    2        5.427538   0.000000
    3        7.017075   0.000000
    4       13.404990   0.000000
    5       15.163392   0.000000
    6       23.140505   0.000000
 
 -0.1666667E+00  0.3333333E+00  0.3333333E+00  0.9259259E-02
    1      -14.692383   1.000000
    2        4.809955   0.000000
    3        9.211226   0.000000
    4       12.941356   0.000000
    5       13.943190   0.000000
    6       19.804009   0.000000
 
  0.0000000E+00  0.5000000E+00  0.3333333E+00  0.9259259E-02
    1      -14.692383   1.000000
    2        4.809950   0.000000
    3        9.211252   0.000000
    4       12.941284   0.000000
    5       13.943240   0.000000
    6       19.804006   0.000000
 
  0.1666667E+00  0.5000000E+00  0.3333333E+00  0.9259259E-02
    1      -14.839039   1.000000
    2        4.154421   0.000000
    3       10.053838   0.000000
    4       12.537111   0.000000
    5       17.738774   0.000000
    6       22.519879   0.000000
 
  0.3333333E+00  0.5000000E+00  0.3333333E+00  0.9259259E-02
    1      -14.892160   1.000000
    2        3.672910   0.000000
    3        9.716436   0.000000
    4       15.741659   0.000000
    5       17.700550   0.000000
    6       21.852636   0.000000
 
  0.5000000E+00  0.5000000E+00  0.3333333E+00  0.9259259E-02
    1      -14.810648   1.000000
    2        3.746749   0.000000
    3        9.360301   0.000000
    4       16.014410   0.000000
    5       16.110123   0.000000
    6       21.508835   0.000000
 
 -0.3333333E+00  0.5000000E+00  0.3333333E+00  0.9259259E-02
    1      -14.674555   1.000000
    2        5.133725   0.000000
    3        7.889386   0.000000
    4       11.278860   0.000000
    5       17.898861   0.000000
    6       22.026782   0.000000
 
 -0.1666667E+00  0.5000000E+00  0.3333333E+00  0.9259259E-02
    1      -14.624890   1.000000
    2        5.996869   0.000000
    3        8.476649   0.000000
    4        9.037678   0.000000
    5       16.733889   0.000000
    6       21.523411   0.000000
 
  0.0000000E+00 -0.3333333E+00  0.3333333E+00  0.9259259E-02
    1      -14.657352   1.000000
    2        5.427555   0.000000
    3        7.017074   0.000000
    4       13.404918   0.000000
    5       15.163439   0.000000
    6       23.140463   0.000000
 
  0.1666667E+00 -0.3333333E+00  0.3333333E+00  0.9259259E-02
    1      -14.674555   1.000000
    2        5.133757   0.000000
    3        7.889346   0.000000
    4       11.278863   0.000000
    5       17.898872   0.000000
    6       22.026740   0.000000
 
  0.3333333E+00 -0.3333333E+00  0.3333333E+00  0.9259259E-02
    1      -14.657352   1.000000
    2        5.427538   0.000000
    3        7.017075   0.000000
    4       13.404990   0.000000
    5       15.163392   0.000000
    6       23.140505   0.000000
 
  0.5000000E+00 -0.3333333E+00  0.3333333E+00  0.9259259E-02
    1      -14.674555   1.000000
    2        5.133725   0.000000
    3        7.889386   0.000000
    4       11.278860   0.000000
    5       17.898861   0.000000
    6       22.026782   0.000000
 
 -0.3333333E+00 -0.3333333E+00  0.3333333E+00  0.9259259E-02
    1      -14.657352   1.000000
    2        5.427538   0.000000
    3        7.017075   0.000000
    4       13.404990   0.000000
    5       15.163392   0.000000
    6       23.140505   0.000000
 
 -0.1666667E+00 -0.3333333E+00  0.3333333E+00  0.9259259E-02
    1      -14.674555   1.000000
    2        5.133757   0.000000
    3        7.889346   0.000000
    4       11.278863   0.000000
    5       17.898872   0.000000
    6       22.026740   0.000000
 
  0.0000000E+00 -0.1666667E+00  0.3333333E+00  0.9259259E-02
    1      -14.892160   1.000000
    2        3.672934   0.000000
    3        9.716404   0.000000
    4       15.741622   0.000000
    5       17.700587   0.000000
    6       21.852573   0.000000
 
  0.1666667E+00 -0.1666667E+00  0.3333333E+00  0.9259259E-02
    1      -14.839040   1.000000
    2        4.154433   0.000000
    3       10.053837   0.000000
    4       12.537084   0.000000
    5       17.738779   0.000000
    6       22.519881   0.000000
 
  0.3333333E+00 -0.1666667E+00  0.3333333E+00  0.9259259E-02
    1      -14.692383   1.000000
    2        4.809955   0.000000
    3        9.211226   0.000000
    4       12.941356   0.000000
    5       13.943190   0.000000
    6       19.804009   0.000000
 
  0.5000000E+00 -0.1666667E+00  0.3333333E+00  0.9259259E-02
    1      -14.624890   1.000000
    2        5.996869   0.000000
    3        8.476649   0.000000
    4        9.037678   0.000000
    5       16.733889   0.000000
    6       21.523411   0.000000
 
 -0.3333333E+00 -0.1666667E+00  0.3333333E+00  0.9259259E-02
    1      -14.674555   1.000000
    2        5.133757   0.000000
    3        7.889346   0.000000
    4       11.278863   0.000000
    5       17.898872   0.000000
    6       22.026740   0.000000
 
 -0.1666667E+00 -0.1666667E+00  0.3333333E+00  0.9259259E-02
    1      -14.810648   1.000000
    2        3.746779   0.000000
    3        9.360247   0.000000
    4       16.014435   0.000000
    5       16.110121   0.000000
    6       21.508809   0.000000
 
  0.0000000E+00  0.0000000E+00  0.5000000E+00  0.4629630E-02
    1      -14.850692   1.000000
    2        3.107249   0.000000
    3       10.118972   0.000000
    4       18.530699   0.000000
    5       18.530740   0.000000
    6       22.033474   0.000000
 
  0.1666667E+00 -0.1387779E-16  0.5000000E+00  0.9259259E-02
    1      -14.810648   1.000000
    2        3.746777   0.000000
    3        9.360255   0.000000
    4       16.014376   0.000000
    5       16.110166   0.000000
    6       21.508789   0.000000
 
  0.3333333E+00 -0.5551115E-16  0.5000000E+00  0.9259259E-02
    1      -14.692383   1.000000
    2        4.809950   0.000000
    3        9.211252   0.000000
    4       12.941284   0.000000
    5       13.943240   0.000000
    6       19.804006   0.000000
 
  0.5000000E+00 -0.5551115E-16  0.5000000E+00  0.4629630E-02
    1      -14.610378   1.000000
    2        4.977818   0.000000
    3       10.057269   0.000000
    4       13.201110   0.000000
    5       13.201160   0.000000
    6       15.329351   0.000000
 
  0.0000000E+00  0.1666667E+00  0.5000000E+00  0.9259259E-02
    1      -14.810648   1.000000
    2        3.746777   0.000000
    3        9.360255   0.000000
    4       16.014376   0.000000
    5       16.110166   0.000000
    6       21.508789   0.000000
 
  0.1666667E+00  0.1666667E+00  0.5000000E+00  0.9259259E-02
    1      -14.892160   1.000000
    2        3.672929   0.000000
    3        9.716393   0.000000
    4       15.741692   0.000000
    5       17.700548   0.000000
    6       21.852601   0.000000
 
  0.3333333E+00  0.1666667E+00  0.5000000E+00  0.9259259E-02
    1      -14.839039   1.000000
    2        4.154421   0.000000
    3       10.053838   0.000000
    4       12.537111   0.000000
    5       17.738774   0.000000
    6       22.519879   0.000000
 
  0.5000000E+00  0.1666667E+00  0.5000000E+00  0.9259259E-02
    1      -14.692383   1.000000
    2        4.809940   0.000000
    3        9.211254   0.000000
    4       12.941347   0.000000
    5       13.943191   0.000000
    6       19.804012   0.000000
 
 -0.3333333E+00  0.1666667E+00  0.5000000E+00  0.9259259E-02
    1      -14.624890   1.000000
    2        5.996869   0.000000
    3        8.476649   0.000000
    4        9.037678   0.000000
    5       16.733889   0.000000
    6       21.523411   0.000000
 
 -0.1666667E+00  0.1666667E+00  0.5000000E+00  0.9259259E-02
    1      -14.674555   1.000000
    2        5.133755   0.000000
    3        7.889366   0.000000
    4       11.278838   0.000000
    5       17.898869   0.000000
    6       22.026748   0.000000
 
  0.0000000E+00  0.3333333E+00  0.5000000E+00  0.9259259E-02
    1      -14.692383   1.000000
    2        4.809950   0.000000
    3        9.211252   0.000000
    4       12.941284   0.000000
    5       13.943240   0.000000
    6       19.804006   0.000000
 
  0.1666667E+00  0.3333333E+00  0.5000000E+00  0.9259259E-02
    1      -14.839039   1.000000
    2        4.154421   0.000000
    3       10.053838   0.000000
    4       12.537111   0.000000
    5       17.738774   0.000000
    6       22.519879   0.000000
 
  0.3333333E+00  0.3333333E+00  0.5000000E+00  0.9259259E-02
    1      -14.892160   1.000000
    2        3.672910   0.000000
    3        9.716436   0.000000
    4       15.741659   0.000000
    5       17.700550   0.000000
    6       21.852636   0.000000
 
  0.5000000E+00  0.3333333E+00  0.5000000E+00  0.9259259E-02
    1      -14.810648   1.000000
    2        3.746749   0.000000
    3        9.360301   0.000000
    4       16.014410   0.000000
    5       16.110123   0.000000
    6       21.508835   0.000000
 
 -0.3333333E+00  0.3333333E+00  0.5000000E+00  0.9259259E-02
    1      -14.674555   1.000000
    2        5.133725   0.000000
    3        7.889386   0.000000
    4       11.278860   0.000000
    5       17.898861   0.000000
    6       22.026782   0.000000
 
 -0.1666667E+00  0.3333333E+00  0.5000000E+00  0.9259259E-02
    1      -14.624890   1.000000
    2        5.996869   0.000000
    3        8.476649   0.000000
    4        9.037678   0.000000
    5       16.733889   0.000000
    6       21.523411   0.000000
 
  0.0000000E+00  0.5000000E+00  0.5000000E+00  0.4629630E-02
    1      -14.610378   1.000000
    2        4.977818   0.000000
    3       10.057269   0.000000
    4       13.201110   0.000000
    5       13.201160   0.000000
    6       15.329351   0.000000
 
  0.1666667E+00  0.5000000E+00  0.5000000E+00  0.9259259E-02
    1      -14.692383   1.000000
    2        4.809940   0.000000
    3        9.211254   0.000000
    4       12.941347   0.000000
    5       13.943191   0.000000
    6       19.804012   0.000000
 
  0.3333333E+00  0.5000000E+00  0.5000000E+00  0.9259259E-02
    1      -14.810648   1.000000
    2        3.746749   0.000000
    3        9.360301   0.000000
    4       16.014410   0.000000
    5       16.110123   0.000000
    6       21.508835   0.000000
 
  0.5000000E+00  0.5000000E+00  0.5000000E+00  0.4629630E-02
    1      -14.850693   1.000000
    2        3.107217   0.000000
    3       10.119039   0.000000
    4       18.530709   0.000000
    5       18.530709   0.000000
    6       22.033459   0.000000
