   1   1   0   0
  0.6083477E+02  0.4414576E-09  0.4414576E-09  0.4414576E-09  0.1000000E-15
  1.000000000000000E-004
  CAR 
 Rn_FCC                                  
     18.13904932    -47.59551144  301     -1.08830971      1.00000000
    -47.596  0.0000E+00  0.0000E+00
    -47.376  0.0000E+00  0.0000E+00
    -47.157  0.0000E+00  0.0000E+00
    -46.938  0.0000E+00  0.0000E+00
    -46.719  0.0000E+00  0.0000E+00
    -46.500  0.0000E+00  0.0000E+00
    -46.281  0.0000E+00  0.0000E+00
    -46.062  0.0000E+00  0.0000E+00
    -45.843  0.0000E+00  0.0000E+00
    -45.623  0.0000E+00  0.0000E+00
    -45.404  0.0000E+00  0.0000E+00
    -45.185  0.0000E+00  0.0000E+00
    -44.966  0.0000E+00  0.0000E+00
    -44.747  0.6823E-03  0.1495E-03
    -44.528  0.1802E+02  0.3949E+01
    -44.309  0.2310E+00  0.4000E+01
    -44.090  0.0000E+00  0.4000E+01
    -43.871  0.0000E+00  0.4000E+01
    -43.651  0.0000E+00  0.4000E+01
    -43.432  0.0000E+00  0.4000E+01
    -43.213  0.0000E+00  0.4000E+01
    -42.994  0.0000E+00  0.4000E+01
    -42.775  0.0000E+00  0.4000E+01
    -42.556  0.0000E+00  0.4000E+01
    -42.337  0.0000E+00  0.4000E+01
    -42.118  0.0000E+00  0.4000E+01
    -41.899  0.0000E+00  0.4000E+01
    -41.679  0.0000E+00  0.4000E+01
    -41.460  0.0000E+00  0.4000E+01
    -41.241  0.0000E+00  0.4000E+01
    -41.022  0.0000E+00  0.4000E+01
    -40.803  0.0000E+00  0.4000E+01
    -40.584  0.0000E+00  0.4000E+01
    -40.365  0.4125E-04  0.4000E+01
    -40.146  0.2565E+02  0.9619E+01
    -39.926  0.1737E+01  0.1000E+02
    -39.707  0.0000E+00  0.1000E+02
    -39.488  0.0000E+00  0.1000E+02
    -39.269  0.0000E+00  0.1000E+02
    -39.050  0.0000E+00  0.1000E+02
    -38.831  0.0000E+00  0.1000E+02
    -38.612  0.0000E+00  0.1000E+02
    -38.393  0.0000E+00  0.1000E+02
    -38.174  0.0000E+00  0.1000E+02
    -37.954  0.0000E+00  0.1000E+02
    -37.735  0.0000E+00  0.1000E+02
    -37.516  0.0000E+00  0.1000E+02
    -37.297  0.0000E+00  0.1000E+02
    -37.078  0.0000E+00  0.1000E+02
    -36.859  0.0000E+00  0.1000E+02
    -36.640  0.0000E+00  0.1000E+02
    -36.421  0.0000E+00  0.1000E+02
    -36.202  0.0000E+00  0.1000E+02
    -35.982  0.0000E+00  0.1000E+02
    -35.763  0.0000E+00  0.1000E+02
    -35.544  0.0000E+00  0.1000E+02
    -35.325  0.0000E+00  0.1000E+02
    -35.106  0.0000E+00  0.1000E+02
    -34.887  0.0000E+00  0.1000E+02
    -34.668  0.0000E+00  0.1000E+02
    -34.449  0.0000E+00  0.1000E+02
    -34.229  0.0000E+00  0.1000E+02
    -34.010  0.0000E+00  0.1000E+02
    -33.791  0.0000E+00  0.1000E+02
    -33.572  0.0000E+00  0.1000E+02
    -33.353  0.0000E+00  0.1000E+02
    -33.134  0.0000E+00  0.1000E+02
    -32.915  0.0000E+00  0.1000E+02
    -32.696  0.0000E+00  0.1000E+02
    -32.477  0.0000E+00  0.1000E+02
    -32.257  0.0000E+00  0.1000E+02
    -32.038  0.0000E+00  0.1000E+02
    -31.819  0.0000E+00  0.1000E+02
    -31.600  0.0000E+00  0.1000E+02
    -31.381  0.0000E+00  0.1000E+02
    -31.162  0.0000E+00  0.1000E+02
    -30.943  0.0000E+00  0.1000E+02
    -30.724  0.0000E+00  0.1000E+02
    -30.505  0.0000E+00  0.1000E+02
    -30.285  0.0000E+00  0.1000E+02
    -30.066  0.0000E+00  0.1000E+02
    -29.847  0.0000E+00  0.1000E+02
    -29.628  0.0000E+00  0.1000E+02
    -29.409  0.0000E+00  0.1000E+02
    -29.190  0.0000E+00  0.1000E+02
    -28.971  0.0000E+00  0.1000E+02
    -28.752  0.0000E+00  0.1000E+02
    -28.532  0.0000E+00  0.1000E+02
    -28.313  0.0000E+00  0.1000E+02
    -28.094  0.0000E+00  0.1000E+02
    -27.875  0.0000E+00  0.1000E+02
    -27.656  0.0000E+00  0.1000E+02
    -27.437  0.0000E+00  0.1000E+02
    -27.218  0.0000E+00  0.1000E+02
    -26.999  0.0000E+00  0.1000E+02
    -26.780  0.0000E+00  0.1000E+02
    -26.560  0.0000E+00  0.1000E+02
    -26.341  0.0000E+00  0.1000E+02
    -26.122  0.0000E+00  0.1000E+02
    -25.903  0.0000E+00  0.1000E+02
    -25.684  0.0000E+00  0.1000E+02
    -25.465  0.0000E+00  0.1000E+02
    -25.246  0.0000E+00  0.1000E+02
    -25.027  0.0000E+00  0.1000E+02
    -24.808  0.0000E+00  0.1000E+02
    -24.588  0.0000E+00  0.1000E+02
    -24.369  0.0000E+00  0.1000E+02
    -24.150  0.0000E+00  0.1000E+02
    -23.931  0.0000E+00  0.1000E+02
    -23.712  0.0000E+00  0.1000E+02
    -23.493  0.0000E+00  0.1000E+02
    -23.274  0.0000E+00  0.1000E+02
    -23.055  0.0000E+00  0.1000E+02
    -22.835  0.0000E+00  0.1000E+02
    -22.616  0.0000E+00  0.1000E+02
    -22.397  0.0000E+00  0.1000E+02
    -22.178  0.0000E+00  0.1000E+02
    -21.959  0.0000E+00  0.1000E+02
    -21.740  0.0000E+00  0.1000E+02
    -21.521  0.0000E+00  0.1000E+02
    -21.302  0.0000E+00  0.1000E+02
    -21.083  0.0000E+00  0.1000E+02
    -20.863  0.0000E+00  0.1000E+02
    -20.644  0.0000E+00  0.1000E+02
    -20.425  0.0000E+00  0.1000E+02
    -20.206  0.0000E+00  0.1000E+02
    -19.987  0.0000E+00  0.1000E+02
    -19.768  0.0000E+00  0.1000E+02
    -19.549  0.0000E+00  0.1000E+02
    -19.330  0.0000E+00  0.1000E+02
    -19.111  0.0000E+00  0.1000E+02
    -18.891  0.0000E+00  0.1000E+02
    -18.672  0.0000E+00  0.1000E+02
    -18.453  0.0000E+00  0.1000E+02
    -18.234  0.0000E+00  0.1000E+02
    -18.015  0.8624E-08  0.1000E+02
    -17.796  0.2492E+00  0.1005E+02
    -17.577  0.7820E+01  0.1177E+02
    -17.358  0.1059E+01  0.1200E+02
    -17.138  0.0000E+00  0.1200E+02
    -16.919  0.0000E+00  0.1200E+02
    -16.700  0.0000E+00  0.1200E+02
    -16.481  0.0000E+00  0.1200E+02
    -16.262  0.0000E+00  0.1200E+02
    -16.043  0.0000E+00  0.1200E+02
    -15.824  0.0000E+00  0.1200E+02
    -15.605  0.0000E+00  0.1200E+02
    -15.386  0.0000E+00  0.1200E+02
    -15.166  0.0000E+00  0.1200E+02
    -14.947  0.0000E+00  0.1200E+02
    -14.728  0.0000E+00  0.1200E+02
    -14.509  0.0000E+00  0.1200E+02
    -14.290  0.0000E+00  0.1200E+02
    -14.071  0.0000E+00  0.1200E+02
    -13.852  0.0000E+00  0.1200E+02
    -13.633  0.0000E+00  0.1200E+02
    -13.414  0.0000E+00  0.1200E+02
    -13.194  0.0000E+00  0.1200E+02
    -12.975  0.0000E+00  0.1200E+02
    -12.756  0.0000E+00  0.1200E+02
    -12.537  0.0000E+00  0.1200E+02
    -12.318  0.0000E+00  0.1200E+02
    -12.099  0.0000E+00  0.1200E+02
    -11.880  0.0000E+00  0.1200E+02
    -11.661  0.0000E+00  0.1200E+02
    -11.442  0.0000E+00  0.1200E+02
    -11.222  0.0000E+00  0.1200E+02
    -11.003  0.0000E+00  0.1200E+02
    -10.784  0.0000E+00  0.1200E+02
    -10.565  0.0000E+00  0.1200E+02
    -10.346  0.0000E+00  0.1200E+02
    -10.127  0.0000E+00  0.1200E+02
     -9.908  0.0000E+00  0.1200E+02
     -9.689  0.0000E+00  0.1200E+02
     -9.469  0.0000E+00  0.1200E+02
     -9.250  0.0000E+00  0.1200E+02
     -9.031  0.0000E+00  0.1200E+02
     -8.812  0.0000E+00  0.1200E+02
     -8.593  0.0000E+00  0.1200E+02
     -8.374  0.0000E+00  0.1200E+02
     -8.155  0.0000E+00  0.1200E+02
     -7.936  0.0000E+00  0.1200E+02
     -7.717  0.0000E+00  0.1200E+02
     -7.497  0.0000E+00  0.1200E+02
     -7.278  0.0000E+00  0.1200E+02
     -7.059  0.0000E+00  0.1200E+02
     -6.840  0.0000E+00  0.1200E+02
     -6.621  0.0000E+00  0.1200E+02
     -6.402  0.0000E+00  0.1200E+02
     -6.183  0.9898E-16  0.1200E+02
     -5.964  0.1209E-01  0.1200E+02
     -5.745  0.5872E+01  0.1329E+02
     -5.525  0.2200E+01  0.1377E+02
     -5.306  0.6885E+00  0.1392E+02
     -5.087  0.3449E+00  0.1400E+02
     -4.868  0.9634E-02  0.1400E+02
     -4.649  0.0000E+00  0.1400E+02
     -4.430  0.0000E+00  0.1400E+02
     -4.211  0.0000E+00  0.1400E+02
     -3.992  0.0000E+00  0.1400E+02
     -3.772  0.0000E+00  0.1400E+02
     -3.553  0.0000E+00  0.1400E+02
     -3.334  0.0000E+00  0.1400E+02
     -3.115  0.4055E-02  0.1400E+02
     -2.896  0.4320E+01  0.1495E+02
     -2.677  0.2368E+01  0.1547E+02
     -2.458  0.1452E+01  0.1578E+02
     -2.239  0.2566E+01  0.1635E+02
     -2.020  0.2112E+01  0.1681E+02
     -1.800  0.2962E+01  0.1746E+02
     -1.581  0.1625E+01  0.1781E+02
     -1.362  0.7488E+00  0.1798E+02
     -1.143  0.9831E-01  0.1800E+02
     -0.924  0.0000E+00  0.1800E+02
     -0.705  0.0000E+00  0.1800E+02
     -0.486  0.0000E+00  0.1800E+02
     -0.267  0.0000E+00  0.1800E+02
     -0.048  0.0000E+00  0.1800E+02
      0.172  0.0000E+00  0.1800E+02
      0.391  0.0000E+00  0.1800E+02
      0.610  0.0000E+00  0.1800E+02
      0.829  0.0000E+00  0.1800E+02
      1.048  0.0000E+00  0.1800E+02
      1.267  0.0000E+00  0.1800E+02
      1.486  0.0000E+00  0.1800E+02
      1.705  0.0000E+00  0.1800E+02
      1.925  0.0000E+00  0.1800E+02
      2.144  0.0000E+00  0.1800E+02
      2.363  0.0000E+00  0.1800E+02
      2.582  0.0000E+00  0.1800E+02
      2.801  0.0000E+00  0.1800E+02
      3.020  0.5487E-03  0.1800E+02
      3.239  0.4190E-01  0.1801E+02
      3.458  0.1532E-05  0.1801E+02
      3.677  0.0000E+00  0.1801E+02
      3.897  0.3376E-02  0.1801E+02
      4.116  0.2938E+00  0.1807E+02
      4.335  0.2343E+00  0.1813E+02
      4.554  0.1423E+00  0.1816E+02
      4.773  0.1254E-01  0.1816E+02
      4.992  0.8713E+00  0.1835E+02
      5.211  0.1565E+01  0.1869E+02
      5.430  0.1374E+01  0.1899E+02
      5.649  0.1679E+01  0.1936E+02
      5.869  0.1492E+01  0.1969E+02
      6.088  0.1729E+01  0.2007E+02
      6.307  0.1088E+01  0.2031E+02
      6.526  0.7657E-01  0.2032E+02
      6.745  0.1444E+01  0.2064E+02
      6.964  0.3377E+01  0.2138E+02
      7.183  0.2137E+01  0.2185E+02
      7.402  0.8638E+00  0.2204E+02
      7.622  0.6679E+00  0.2218E+02
      7.841  0.6497E+00  0.2233E+02
      8.060  0.1659E+01  0.2269E+02
      8.279  0.1889E+01  0.2310E+02
      8.498  0.2082E+01  0.2356E+02
      8.717  0.2270E+01  0.2406E+02
      8.936  0.2503E+01  0.2461E+02
      9.155  0.1008E+01  0.2483E+02
      9.374  0.2977E+01  0.2548E+02
      9.594  0.1241E+00  0.2551E+02
      9.813  0.9014E+00  0.2570E+02
     10.032  0.5908E+00  0.2583E+02
     10.251  0.8055E+00  0.2601E+02
     10.470  0.1995E+01  0.2645E+02
     10.689  0.1292E+01  0.2673E+02
     10.908  0.2201E+01  0.2721E+02
     11.127  0.1783E+01  0.2760E+02
     11.346  0.1477E+01  0.2793E+02
     11.566  0.1250E+01  0.2820E+02
     11.785  0.9679E+00  0.2841E+02
     12.004  0.1926E+01  0.2883E+02
     12.223  0.1421E+01  0.2915E+02
     12.442  0.1348E+01  0.2944E+02
     12.661  0.1685E+01  0.2981E+02
     12.880  0.1897E+01  0.3023E+02
     13.099  0.6285E+00  0.3036E+02
     13.319  0.1187E+01  0.3062E+02
     13.538  0.1715E+01  0.3100E+02
     13.757  0.1103E+00  0.3102E+02
     13.976  0.5602E+00  0.3115E+02
     14.195  0.2314E+01  0.3165E+02
     14.414  0.8189E+00  0.3183E+02
     14.633  0.1279E-04  0.3183E+02
     14.852  0.5013E+00  0.3194E+02
     15.071  0.2506E+00  0.3200E+02
     15.291  0.1228E-01  0.3200E+02
     15.510  0.0000E+00  0.3200E+02
     15.729  0.0000E+00  0.3200E+02
     15.948  0.0000E+00  0.3200E+02
     16.167  0.0000E+00  0.3200E+02
     16.386  0.0000E+00  0.3200E+02
     16.605  0.0000E+00  0.3200E+02
     16.824  0.0000E+00  0.3200E+02
     17.043  0.0000E+00  0.3200E+02
     17.263  0.0000E+00  0.3200E+02
     17.482  0.0000E+00  0.3200E+02
     17.701  0.0000E+00  0.3200E+02
     17.920  0.0000E+00  0.3200E+02
     18.139  0.0000E+00  0.3200E+02
