    1    1   49    1
  0.6400541E+02  0.4489975E-09  0.4489975E-09  0.4489975E-09  0.2000000E-16
  1.000000000000000E-004
  CAR 
 Og_FCC                                  
     18     35     32
 
  0.0000000E+00  0.0000000E+00  0.0000000E+00  0.1371742E-02
    1      -28.946835   1.000000
    2      -28.946835   1.000000
    3      -28.946834   1.000000
    4      -28.944629   1.000000
    5      -28.944628   1.000000
    6      -21.947467   1.000000
    7        0.758039   0.795507
    8        0.758040   0.795501
    9        0.758040   0.795497
   10        2.919355  -0.000000
   11        9.877689   0.000000
   12        9.877689   0.000000
   13        9.877690   0.000000
   14       10.339222   0.000000
   15       12.450163   0.000000
   16       12.450163   0.000000
   17       12.450164   0.000000
   18       12.763473   0.000000
   19       12.763473   0.000000
   20       15.196076   0.000000
   21       18.679469   0.000000
   22       18.679470   0.000000
   23       18.679470   0.000000
   24       23.728504   0.000000
   25       23.728505   0.000000
   26       23.728507   0.000000
   27       24.188590   0.000000
   28       27.275757   0.000000
   29       27.276413   0.000000
   30       27.315042   0.000000
   31       27.811792   0.000000
   32       27.811954   0.000000
 
  0.1111111E+00  0.1010271E-17  0.6938894E-17  0.1097394E-01
    1      -28.946660   1.000000
    2      -28.946512   1.000000
    3      -28.946511   1.000000
    4      -28.944538   1.000000
    5      -28.944537   1.000000
    6      -21.940065   1.000000
    7        0.169033   1.000000
    8        0.716695   0.987645
    9        0.716696   0.987642
   10        3.604876   0.000000
   11        9.134817   0.000000
   12        9.998824   0.000000
   13        9.998824   0.000000
   14       11.328382   0.000000
   15       11.659828   0.000000
   16       11.659828   0.000000
   17       12.152741   0.000000
   18       13.853343   0.000000
   19       13.853344   0.000000
   20       16.026683   0.000000
   21       18.497135   0.000000
   22       18.497136   0.000000
   23       18.706770   0.000000
   24       22.738034   0.000000
   25       23.437305   0.000000
   26       23.437306   0.000000
   27       23.982270   0.000000
   28       25.383264   0.000000
   29       26.460901   0.000000
   30       26.460958   0.000000
   31       27.687028   0.000000
   32       27.718330   0.000000
 
  0.2222222E+00  0.1589833E-16  0.2775558E-16  0.1097394E-01
    1      -28.946182   1.000000
    2      -28.946143   1.000000
    3      -28.946142   1.000000
    4      -28.943879   1.000000
    5      -28.943879   1.000000
    6      -21.921144   1.000000
    7       -0.727244   1.000000
    8        0.615498   1.014327
    9        0.615499   1.014327
   10        4.639163   0.000000
   11        8.887603   0.000000
   12       10.027494   0.000000
   13       10.027494   0.000000
   14       10.938374   0.000000
   15       11.456323   0.000000
   16       11.456323   0.000000
   17       13.510176   0.000000
   18       15.206918   0.000000
   19       15.206918   0.000000
   20       17.718114   0.000000
   21       17.857830   0.000000
   22       17.857831   0.000000
   23       18.777453   0.000000
   24       20.031320   0.000000
   25       23.001782   0.000000
   26       23.001783   0.000000
   27       23.566501   0.000000
   28       24.909520   0.000000
   29       25.528800   0.000000
   30       25.528802   0.000000
   31       28.234481   0.000000
   32       28.254341   0.000000
 
  0.3333333E+00 -0.2472476E-16  0.1387779E-16  0.1097394E-01
    1      -28.946234   1.000000
    2      -28.946234   1.000000
    3      -28.945698   1.000000
    4      -28.942642   1.000000
    5      -28.942641   1.000000
    6      -21.899514   1.000000
    7       -1.418260   1.000000
    8        0.505878   1.000163
    9        0.505879   1.000163
   10        5.198441   0.000000
   11        9.556270   0.000000
   12        9.706901   0.000000
   13        9.706901   0.000000
   14       10.451737   0.000000
   15       12.177761   0.000000
   16       12.177761   0.000000
   17       15.443318   0.000000
   18       16.433708   0.000000
   19       16.433708   0.000000
   20       16.791208   0.000000
   21       16.791208   0.000000
   22       17.169530   0.000000
   23       18.860730   0.000000
   24       19.708019   0.000000
   25       22.959899   0.000000
   26       22.959899   0.000000
   27       23.102711   0.000000
   28       24.842161   0.000000
   29       24.842163   0.000000
   30       24.856621   0.000000
   31       28.372147   0.000000
   32       28.490215   0.000000
 
  0.4444444E+00  0.3179666E-16  0.5551115E-16  0.1097394E-01
    1      -28.946376   1.000000
    2      -28.946376   1.000000
    3      -28.945350   1.000000
    4      -28.941714   1.000000
    5      -28.941714   1.000000
    6      -21.885224   1.000000
    7       -1.783983   1.000000
    8        0.437116   1.000002
    9        0.437117   1.000002
   10        5.322407   0.000000
   11        9.476849   0.000000
   12        9.476850   0.000000
   13        9.828538   0.000000
   14       11.292576   0.000000
   15       13.154861   0.000000
   16       13.154861   0.000000
   17       14.868987   0.000000
   18       15.550950   0.000000
   19       15.550950   0.000000
   20       17.038948   0.000000
   21       17.319319   0.000000
   22       17.319319   0.000000
   23       18.916883   0.000000
   24       21.373516   0.000000
   25       22.455251   0.000000
   26       23.294433   0.000000
   27       23.294434   0.000000
   28       24.278561   0.000000
   29       24.278561   0.000000
   30       25.070430   0.000000
   31       26.487867   0.000000
   32       27.869483   0.000000
 
  0.1111111E+00  0.1111111E+00  0.1387779E-16  0.8230453E-02
    1      -28.947040   1.000000
    2      -28.946142   1.000000
    3      -28.946141   1.000000
    4      -28.944818   1.000000
    5      -28.944317   1.000000
    6      -21.937627   1.000000
    7        0.135744   1.000000
    8        0.627157   1.019156
    9        0.627158   1.019156
   10        3.837980   0.000000
   11        8.843634   0.000000
   12       10.168469   0.000000
   13       10.168469   0.000000
   14       10.608726   0.000000
   15       11.656318   0.000000
   16       12.756577   0.000000
   17       12.756578   0.000000
   18       12.863870   0.000000
   19       13.933280   0.000000
   20       16.421153   0.000000
   21       18.375492   0.000000
   22       18.618144   0.000000
   23       18.618145   0.000000
   24       22.469817   0.000000
   25       23.431737   0.000000
   26       23.431737   0.000000
   27       23.911406   0.000000
   28       25.589621   0.000000
   29       25.589628   0.000000
   30       25.738309   0.000000
   31       27.411658   0.000000
   32       27.622945   0.000000
 
  0.2222222E+00  0.1111111E+00  0.2775558E-16  0.3292181E-01
    1      -28.946942   1.000000
    2      -28.945593   1.000000
    3      -28.945565   1.000000
    4      -28.944618   1.000000
    5      -28.943710   1.000000
    6      -21.922539   1.000000
    7       -0.535596   1.000000
    8        0.493376   1.000082
    9        0.529919   1.000554
   10        4.759899   0.000000
   11        8.466084   0.000000
   12        9.615433   0.000000
   13       10.389818   0.000000
   14       10.764252   0.000000
   15       12.110036   0.000000
   16       12.302091   0.000000
   17       13.221536   0.000000
   18       14.146778   0.000000
   19       15.014072   0.000000
   20       17.740567   0.000000
   21       17.786278   0.000000
   22       18.244540   0.000000
   23       18.631134   0.000000
   24       20.824954   0.000000
   25       22.764021   0.000000
   26       23.019207   0.000000
   27       23.570875   0.000000
   28       24.723394   0.000000
   29       24.745923   0.000000
   30       25.762345   0.000000
   31       27.651737   0.000000
   32       27.809075   0.000000
 
  0.3333333E+00  0.1111111E+00  0.2775558E-16  0.3292181E-01
    1      -28.946562   1.000000
    2      -28.945560   1.000000
    3      -28.945532   1.000000
    4      -28.943557   1.000000
    5      -28.942523   1.000000
    6      -21.901799   1.000000
    7       -1.209683   1.000000
    8        0.379996   1.000000
    9        0.380867   1.000000
   10        5.514542   0.000000
   11        8.799535   0.000000
   12        8.970243   0.000000
   13       10.199314   0.000000
   14       11.583004   0.000000
   15       11.698153   0.000000
   16       12.703230   0.000000
   17       14.895359   0.000000
   18       15.514252   0.000000
   19       16.385720   0.000000
   20       16.725099   0.000000
   21       16.819825   0.000000
   22       18.716109   0.000000
   23       18.795357   0.000000
   24       19.513767   0.000000
   25       22.562924   0.000000
   26       22.834230   0.000000
   27       23.095023   0.000000
   28       24.161801   0.000000
   29       24.598788   0.000000
   30       25.268925   0.000000
   31       27.154723   0.000000
   32       28.354519   0.000000
 
  0.4444444E+00  0.1111111E+00  0.5551115E-16  0.3292181E-01
    1      -28.946445   1.000000
    2      -28.945752   1.000000
    3      -28.945192   1.000000
    4      -28.942477   1.000000
    5      -28.941650   1.000000
    6      -21.885034   1.000000
    7       -1.636850   1.000000
    8        0.217353   1.000000
    9        0.334926   1.000000
   10        5.768803   0.000000
   11        8.596974   0.000000
   12        9.866244   0.000000
   13        9.989402   0.000000
   14       11.327152   0.000000
   15       12.670654   0.000000
   16       13.445168   0.000000
   17       15.023107   0.000000
   18       15.465747   0.000000
   19       16.558134   0.000000
   20       16.867177   0.000000
   21       17.272671   0.000000
   22       17.372842   0.000000
   23       18.793940   0.000000
   24       20.848878   0.000000
   25       22.480845   0.000000
   26       23.068330   0.000000
   27       23.079184   0.000000
   28       23.862711   0.000000
   29       24.070807   0.000000
   30       25.124439   0.000000
   31       26.742784   0.000000
   32       26.960559   0.000000
 
 -0.4444444E+00  0.1111111E+00 -0.8326673E-16  0.3292181E-01
    1      -28.946389   1.000000
    2      -28.945857   1.000000
    3      -28.945047   1.000000
    4      -28.941879   1.000000
    5      -28.941734   1.000000
    6      -21.880287   1.000000
    7       -1.744058   1.000000
    8        0.115397   1.000000
    9        0.375495   1.000000
   10        5.808201   0.000000
   11        8.539828   0.000000
   12        9.689007   0.000000
   13       10.737198   0.000000
   14       11.582053   0.000000
   15       12.503114   0.000000
   16       13.016399   0.000000
   17       15.279919   0.000000
   18       15.756390   0.000000
   19       15.923041   0.000000
   20       17.083179   0.000000
   21       17.420315   0.000000
   22       17.466209   0.000000
   23       18.815701   0.000000
   24       21.658143   0.000000
   25       21.992903   0.000000
   26       23.226775   0.000000
   27       23.480697   0.000000
   28       23.628193   0.000000
   29       23.876422   0.000000
   30       25.321330   0.000000
   31       26.132529   0.000000
   32       26.695849   0.000000
 
 -0.3333333E+00  0.1111111E+00 -0.4163336E-16  0.3292181E-01
    1      -28.946205   1.000000
    2      -28.945792   1.000000
    3      -28.945356   1.000000
    4      -28.942756   1.000000
    5      -28.942030   1.000000
    6      -21.889778   1.000000
    7       -1.520151   1.000000
    8        0.121955   1.000000
    9        0.485855   1.000053
   10        5.739736   0.000000
   11        8.787685   0.000000
   12        9.719530   0.000000
   13        9.748937   0.000000
   14       11.546935   0.000000
   15       11.872095   0.000000
   16       13.264636   0.000000
   17       15.169323   0.000000
   18       15.843268   0.000000
   19       16.479748   0.000000
   20       16.920097   0.000000
   21       17.241188   0.000000
   22       17.387680   0.000000
   23       18.765996   0.000000
   24       20.497068   0.000000
   25       22.486720   0.000000
   26       22.877337   0.000000
   27       23.100712   0.000000
   28       24.147514   0.000000
   29       24.701077   0.000000
   30       24.939728   0.000000
   31       26.685781   0.000000
   32       26.965392   0.000000
 
 -0.2222222E+00  0.1111111E+00 -0.2775558E-16  0.3292181E-01
    1      -28.946076   1.000000
    2      -28.945874   1.000000
    3      -28.945669   1.000000
    4      -28.944137   1.000000
    5      -28.942887   1.000000
    6      -21.908982   1.000000
    7       -1.007357   1.000000
    8        0.249022   1.000000
    9        0.619799   1.016027
   10        5.306197   0.000000
   11        8.771355   0.000000
   12        9.310101   0.000000
   13       10.052729   0.000000
   14       10.919904   0.000000
   15       11.827696   0.000000
   16       12.645893   0.000000
   17       14.201094   0.000000
   18       14.941810   0.000000
   19       16.318571   0.000000
   20       16.632116   0.000000
   21       17.980007   0.000000
   22       18.669635   0.000000
   23       18.690714   0.000000
   24       19.602739   0.000000
   25       22.320902   0.000000
   26       22.818232   0.000000
   27       23.323333   0.000000
   28       24.693171   0.000000
   29       24.787269   0.000000
   30       25.627311   0.000000
   31       27.273944   0.000000
   32       27.543912   0.000000
 
 -0.1111111E+00  0.1111111E+00 -0.5064502E-18  0.1646091E-01
    1      -28.946523   1.000000
    2      -28.946111   1.000000
    3      -28.946006   1.000000
    4      -28.944707   1.000000
    5      -28.943934   1.000000
    6      -21.928827   1.000000
    7       -0.339058   1.000000
    8        0.481075   1.000040
    9        0.713576   0.995450
   10        4.374231   0.000000
   11        8.740478   0.000000
   12        9.933236   0.000000
   13       10.153086   0.000000
   14       10.812298   0.000000
   15       11.537473   0.000000
   16       12.127590   0.000000
   17       13.288680   0.000000
   18       13.481006   0.000000
   19       15.092922   0.000000
   20       17.122359   0.000000
   21       17.901337   0.000000
   22       18.550998   0.000000
   23       18.583429   0.000000
   24       21.489985   0.000000
   25       22.905856   0.000000
   26       23.038421   0.000000
   27       23.735571   0.000000
   28       24.926165   0.000000
   29       25.344185   0.000000
   30       26.466668   0.000000
   31       27.404077   0.000000
   32       27.590233   0.000000
 
  0.2222222E+00  0.2222222E+00  0.0000000E+00  0.8230453E-02
    1      -28.947565   1.000000
    2      -28.945284   1.000000
    3      -28.944340   1.000000
    4      -28.944339   1.000000
    5      -28.943545   1.000000
    6      -21.912443   1.000000
    7       -0.710209   1.000000
    8        0.321537   1.000000
    9        0.321537   1.000000
   10        5.362055   0.000000
   11        7.910973   0.000000
   12        9.143095   0.000000
   13       10.924793   0.000000
   14       10.924794   0.000000
   15       13.162513   0.000000
   16       13.406877   0.000000
   17       13.654329   0.000000
   18       13.654330   0.000000
   19       14.741895   0.000000
   20       17.597815   0.000000
   21       18.302330   0.000000
   22       18.302330   0.000000
   23       18.360326   0.000000
   24       20.298997   0.000000
   25       22.602132   0.000000
   26       22.602132   0.000000
   27       23.300234   0.000000
   28       23.904761   0.000000
   29       23.904761   0.000000
   30       25.269429   0.000000
   31       27.827867   0.000000
   32       28.286857   0.000000
 
  0.3333333E+00  0.2222222E+00  0.2775558E-16  0.3292181E-01
    1      -28.947495   1.000000
    2      -28.945505   1.000000
    3      -28.944076   1.000000
    4      -28.943327   1.000000
    5      -28.942461   1.000000
    6      -21.895542   1.000000
    7       -1.124075   1.000000
    8        0.120580   1.000000
    9        0.182081   1.000000
   10        5.990150   0.000000
   11        7.797870   0.000000
   12        8.775909   0.000000
   13       11.080658   0.000000
   14       11.675644   0.000000
   15       13.320288   0.000000
   16       13.369719   0.000000
   17       14.805962   0.000000
   18       14.808245   0.000000
   19       15.925221   0.000000
   20       16.743282   0.000000
   21       16.886061   0.000000
   22       18.237978   0.000000
   23       18.781624   0.000000
   24       20.371982   0.000000
   25       21.937722   0.000000
   26       22.312713   0.000000
   27       22.905424   0.000000
   28       23.313290   0.000000
   29       23.487601   0.000000
   30       25.237765   0.000000
   31       27.918812   0.000000
   32       28.182012   0.000000
 
  0.4444444E+00  0.2222222E+00  0.2775558E-16  0.3292181E-01
    1      -28.947006   1.000000
    2      -28.945234   1.000000
    3      -28.944287   1.000000
    4      -28.942735   1.000000
    5      -28.941568   1.000000
    6      -21.879730   1.000000
    7       -1.435089   1.000000
    8       -0.176450   1.000000
    9        0.131517   1.000000
   10        6.353702   0.000000
   11        8.261862   0.000000
   12        8.705417   0.000000
   13       10.766297   0.000000
   14       12.468221   0.000000
   15       13.252550   0.000000
   16       13.797190   0.000000
   17       15.095295   0.000000
   18       15.529035   0.000000
   19       16.235483   0.000000
   20       16.344066   0.000000
   21       17.052837   0.000000
   22       18.349226   0.000000
   23       18.950506   0.000000
   24       20.294017   0.000000
   25       21.708603   0.000000
   26       22.459584   0.000000
   27       22.529033   0.000000
   28       23.015303   0.000000
   29       23.232478   0.000000
   30       25.406985   0.000000
   31       26.571573   0.000000
   32       27.745820   0.000000
 
 -0.4444444E+00  0.2222222E+00 -0.5551115E-16  0.3292181E-01
    1      -28.946668   1.000000
    2      -28.944465   1.000000
    3      -28.944392   1.000000
    4      -28.942675   1.000000
    5      -28.941667   1.000000
    6      -21.872436   1.000000
    7       -1.527549   1.000000
    8       -0.445563   1.000000
    9        0.188439   1.000000
   10        6.547012   0.000000
   11        8.188602   0.000000
   12        9.912779   0.000000
   13       10.444056   0.000000
   14       11.657099   0.000000
   15       13.061456   0.000000
   16       13.091922   0.000000
   17       15.706360   0.000000
   18       16.040745   0.000000
   19       16.830149   0.000000
   20       17.139868   0.000000
   21       17.271861   0.000000
   22       18.099123   0.000000
   23       18.425483   0.000000
   24       20.880189   0.000000
   25       21.312287   0.000000
   26       22.648034   0.000000
   27       22.951030   0.000000
   28       23.155669   0.000000
   29       23.242521   0.000000
   30       25.098735   0.000000
   31       26.034919   0.000000
   32       26.092479   0.000000
 
 -0.3333333E+00  0.2222222E+00 -0.4857226E-16  0.3292181E-01
    1      -28.946379   1.000000
    2      -28.944515   1.000000
    3      -28.944402   1.000000
    4      -28.942758   1.000000
    5      -28.942449   1.000000
    6      -21.877167   1.000000
    7       -1.425641   1.000000
    8       -0.514626   1.000000
    9        0.332062   1.000000
   10        6.673203   0.000000
   11        8.196238   0.000000
   12        9.697789   0.000000
   13       10.278503   0.000000
   14       11.854672   0.000000
   15       11.993672   0.000000
   16       13.225690   0.000000
   17       15.355276   0.000000
   18       16.392932   0.000000
   19       16.963475   0.000000
   20       17.072668   0.000000
   21       17.654046   0.000000
   22       17.976669   0.000000
   23       18.383047   0.000000
   24       20.574246   0.000000
   25       21.462218   0.000000
   26       22.779915   0.000000
   27       23.502363   0.000000
   28       23.605000   0.000000
   29       23.988540   0.000000
   30       24.812293   0.000000
   31       24.968854   0.000000
   32       25.835593   0.000000
 
 -0.2222222E+00  0.2222222E+00 -0.4670265E-16  0.1646091E-01
    1      -28.946080   1.000000
    2      -28.945278   1.000000
    3      -28.944431   1.000000
    4      -28.944292   1.000000
    5      -28.942292   1.000000
    6      -21.891612   1.000000
    7       -1.239716   1.000000
    8       -0.251742   1.000000
    9        0.503554   1.000143
   10        6.279989   0.000000
   11        8.540228   0.000000
   12        8.814170   0.000000
   13       10.243758   0.000000
   14       10.973906   0.000000
   15       13.224295   0.000000
   16       13.430014   0.000000
   17       13.978577   0.000000
   18       15.559040   0.000000
   19       15.905430   0.000000
   20       17.174294   0.000000
   21       18.023634   0.000000
   22       18.319875   0.000000
   23       19.107889   0.000000
   24       20.465389   0.000000
   25       20.843021   0.000000
   26       22.978303   0.000000
   27       23.034001   0.000000
   28       24.187016   0.000000
   29       24.872071   0.000000
   30       24.886180   0.000000
   31       25.921550   0.000000
   32       26.689853   0.000000
 
  0.3333333E+00  0.3333333E+00  0.5551115E-16  0.8230453E-02
    1      -28.948159   1.000000
    2      -28.945842   1.000000
    3      -28.942665   1.000000
    4      -28.942334   1.000000
    5      -28.942333   1.000000
    6      -21.883697   1.000000
    7       -1.299349   1.000000
    8        0.009856   1.000000
    9        0.009857   1.000000
   10        5.959628   0.000000
   11        7.283788   0.000000
   12        9.471429   0.000000
   13       11.917308   0.000000
   14       11.917309   0.000000
   15       13.641715   0.000000
   16       14.991991   0.000000
   17       14.991991   0.000000
   18       15.252767   0.000000
   19       15.785000   0.000000
   20       16.626271   0.000000
   21       16.723330   0.000000
   22       17.491524   0.000000
   23       17.491525   0.000000
   24       20.758608   0.000000
   25       21.846329   0.000000
   26       21.846330   0.000000
   27       22.556872   0.000000
   28       22.606430   0.000000
   29       22.606430   0.000000
   30       25.292412   0.000000
   31       28.446272   0.000000
   32       28.454429   0.000000
 
  0.4444444E+00  0.3333333E+00  0.5551115E-16  0.3292181E-01
    1      -28.947981   1.000000
    2      -28.945904   1.000000
    3      -28.942740   1.000000
    4      -28.941762   1.000000
    5      -28.941409   1.000000
    6      -21.871768   1.000000
    7       -1.457411   1.000000
    8       -0.240723   1.000000
    9       -0.067006   1.000000
   10        6.031533   0.000000
   11        7.361474   0.000000
   12        9.868695   0.000000
   13       11.949511   0.000000
   14       12.645502   0.000000
   15       14.023838   0.000000
   16       14.977473   0.000000
   17       15.047117   0.000000
   18       15.784588   0.000000
   19       16.022348   0.000000
   20       16.322127   0.000000
   21       16.803003   0.000000
   22       17.424937   0.000000
   23       17.738511   0.000000
   24       20.645232   0.000000
   25       21.284847   0.000000
   26       21.791180   0.000000
   27       22.087398   0.000000
   28       22.149570   0.000000
   29       22.430558   0.000000
   30       25.322841   0.000000
   31       27.283567   0.000000
   32       28.186100   0.000000
 
 -0.4444444E+00  0.3333333E+00 -0.2775558E-16  0.3292181E-01
    1      -28.947308   1.000000
    2      -28.945221   1.000000
    3      -28.942954   1.000000
    4      -28.942030   1.000000
    5      -28.941425   1.000000
    6      -21.865332   1.000000
    7       -1.397594   1.000000
    8       -0.681962   1.000000
    9       -0.021163   1.000000
   10        6.299716   0.000000
   11        8.115151   0.000000
   12        9.855618   0.000000
   13       11.538831   0.000000
   14       11.666778   0.000000
   15       13.322922   0.000000
   16       14.894346   0.000000
   17       15.749481   0.000000
   18       16.281493   0.000000
   19       16.619307   0.000000
   20       16.897017   0.000000
   21       17.109800   0.000000
   22       17.618577   0.000000
   23       18.218611   0.000000
   24       20.256742   0.000000
   25       20.800425   0.000000
   26       22.108520   0.000000
   27       22.231256   0.000000
   28       22.245066   0.000000
   29       22.571448   0.000000
   30       24.916916   0.000000
   31       26.516496   0.000000
   32       26.808368   0.000000
 
 -0.3333333E+00  0.3333333E+00  0.4932132E-17  0.1646091E-01
    1      -28.946765   1.000000
    2      -28.943769   1.000000
    3      -28.943328   1.000000
    4      -28.943036   1.000000
    5      -28.942264   1.000000
    6      -21.867441   1.000000
    7       -1.134998   1.000000
    8       -1.061465   1.000000
    9        0.131606   1.000000
   10        6.657572   0.000000
   11        8.711591   0.000000
   12       10.073752   0.000000
   13       10.369925   0.000000
   14       10.994941   0.000000
   15       12.302044   0.000000
   16       15.037901   0.000000
   17       15.079746   0.000000
   18       16.975666   0.000000
   19       17.126086   0.000000
   20       17.309272   0.000000
   21       17.620179   0.000000
   22       17.796948   0.000000
   23       18.902525   0.000000
   24       18.974689   0.000000
   25       21.292399   0.000000
   26       22.776231   0.000000
   27       22.969636   0.000000
   28       23.103940   0.000000
   29       23.264307   0.000000
   30       23.556338   0.000000
   31       25.307954   0.000000
   32       26.765942   0.000000
 
  0.4444444E+00  0.4444444E+00  0.0000000E+00  0.8230453E-02
    1      -28.948540   1.000000
    2      -28.946231   1.000000
    3      -28.942084   1.000000
    4      -28.941012   1.000000
    5      -28.941012   1.000000
    6      -21.864875   1.000000
    7       -1.588650   1.000000
    8       -0.177257   1.000000
    9       -0.177256   1.000000
   10        5.676697   0.000000
   11        6.969446   0.000000
   12       11.427851   0.000000
   13       12.807921   0.000000
   14       12.807921   0.000000
   15       14.189831   0.000000
   16       14.241351   0.000000
   17       15.781330   0.000000
   18       16.249098   0.000000
   19       16.249098   0.000000
   20       16.534069   0.000000
   21       16.534070   0.000000
   22       16.732149   0.000000
   23       16.927058   0.000000
   24       20.333288   0.000000
   25       21.346446   0.000000
   26       21.346446   0.000000
   27       21.714088   0.000000
   28       21.714088   0.000000
   29       21.809104   0.000000
   30       25.174153   0.000000
   31       27.547835   0.000000
   32       28.310061   0.000000
 
 -0.4444444E+00  0.4444444E+00 -0.9340530E-16  0.1646091E-01
    1      -28.948167   1.000000
    2      -28.946065   1.000000
    3      -28.942199   1.000000
    4      -28.941124   1.000000
    5      -28.940997   1.000000
    6      -21.862348   1.000000
    7       -1.558258   1.000000
    8       -0.383594   1.000000
    9       -0.160073   1.000000
   10        5.843276   0.000000
   11        7.213001   0.000000
   12       11.761238   0.000000
   13       11.776209   0.000000
   14       12.538856   0.000000
   15       13.896726   0.000000
   16       14.744244   0.000000
   17       16.028580   0.000000
   18       16.257974   0.000000
   19       16.587367   0.000000
   20       16.719024   0.000000
   21       16.725798   0.000000
   22       16.810933   0.000000
   23       17.118932   0.000000
   24       20.276647   0.000000
   25       21.289297   0.000000
   26       21.377958   0.000000
   27       21.518260   0.000000
   28       21.770357   0.000000
   29       21.914918   0.000000
   30       25.162823   0.000000
   31       27.057804   0.000000
   32       27.767749   0.000000
 
  0.3333333E+00  0.2222222E+00  0.1111111E+00  0.3292181E-01
    1      -28.946823   1.000000
    2      -28.945580   1.000000
    3      -28.944661   1.000000
    4      -28.944428   1.000000
    5      -28.942842   1.000000
    6      -21.906559   1.000000
    7       -0.942508   1.000000
    8        0.144624   1.000000
    9        0.475289   1.000028
   10        5.613164   0.000000
   11        8.241390   0.000000
   12        8.917002   0.000000
   13       10.783220   0.000000
   14       10.843687   0.000000
   15       12.653302   0.000000
   16       13.077133   0.000000
   17       13.905346   0.000000
   18       14.608026   0.000000
   19       16.027746   0.000000
   20       16.660207   0.000000
   21       18.048960   0.000000
   22       18.336657   0.000000
   23       18.864202   0.000000
   24       20.228007   0.000000
   25       21.918831   0.000000
   26       22.682128   0.000000
   27       23.249652   0.000000
   28       24.209824   0.000000
   29       24.268663   0.000000
   30       25.339132   0.000000
   31       27.621357   0.000000
   32       27.733803   0.000000
 
  0.4444444E+00  0.2222222E+00  0.1111111E+00  0.6584362E-01
    1      -28.946310   1.000000
    2      -28.945644   1.000000
    3      -28.944656   1.000000
    4      -28.943270   1.000000
    5      -28.942058   1.000000
    6      -21.888251   1.000000
    7       -1.333210   1.000000
    8       -0.136825   1.000000
    9        0.347652   1.000000
   10        6.312697   0.000000
   11        8.336533   0.000000
   12        8.685175   0.000000
   13       10.496100   0.000000
   14       11.687054   0.000000
   15       12.825104   0.000000
   16       13.458447   0.000000
   17       14.838142   0.000000
   18       15.486133   0.000000
   19       16.128487   0.000000