Og_FCC                                  
           1
     4.489975    0.000000    0.000000
     2.244987    3.888432   -0.000000
     2.244987    1.296144    3.666049
   Og
   1
Direct configuration=     1
   0.00000000  0.00000000  0.00000000
Og_FCC                                  
           1
     4.579774    0.000000    0.000000
     2.289887    3.888432   -0.000000
     2.289887    1.296144    3.666049
   Og
   1
Direct configuration=     2
   0.00000000  0.00000000  0.00000000
Og_FCC                                  
           1
     4.400175    0.000000    0.000000
     2.200088    3.888432   -0.000000
     2.200088    1.296144    3.666049
   Og
   1
Direct configuration=     3
   0.00000000  0.00000000  0.00000000
Og_FCC                                  
           1
     4.489975    0.000000    0.000000
     2.244987    3.966201   -0.000000
     2.244987    1.322067    3.666049
   Og
   1
Direct configuration=     4
   0.00000000  0.00000000  0.00000000
Og_FCC                                  
           1
     4.489975    0.000000    0.000000
     2.244987    3.810664   -0.000000
     2.244987    1.270221    3.666049
   Og
   1
Direct configuration=     5
   0.00000000  0.00000000  0.00000000
Og_FCC                                  
           1
     4.489975    0.000000    0.000000
     2.244987    3.888432   -0.000000
     2.244987    1.296144    3.739370
   Og
   1
Direct configuration=     6
   0.00000000  0.00000000  0.00000000
Og_FCC                                  
           1
     4.489975    0.000000    0.000000
     2.244987    3.888432   -0.000000
     2.244987    1.296144    3.592728
   Og
   1
Direct configuration=     7
   0.00000000  0.00000000  0.00000000
Og_FCC                                  
           1
     4.489975    0.089799    0.000000
     2.244987    3.933332   -0.000000
     2.244987    1.341044    3.666049
   Og
   1
Direct configuration=     8
   0.00000000  0.00000000  0.00000000
Og_FCC                                  
           1
     4.489975   -0.089799    0.000000
     2.244987    3.843532   -0.000000
     2.244987    1.251244    3.666049
   Og
   1
Direct configuration=     9
   0.00000000  0.00000000  0.00000000
Og_FCC                                  
           1
     4.489975    0.000000    0.000000
     2.244987    3.888432    0.077769
     2.244987    1.296144    3.691972
   Og
   1
Direct configuration=    10
   0.00000000  0.00000000  0.00000000
Og_FCC                                  
           1
     4.489975    0.000000    0.000000
     2.244987    3.888432   -0.077769
     2.244987    1.296144    3.640126
   Og
   1
Direct configuration=    11
   0.00000000  0.00000000  0.00000000
Og_FCC                                  
           1
     4.489975    0.000000    0.000000
     2.244987    3.888432   -0.000000
     2.318308    1.296144    3.666049
   Og
   1
Direct configuration=    12
   0.00000000  0.00000000  0.00000000
Og_FCC                                  
           1
     4.489975    0.000000    0.000000
     2.244987    3.888432   -0.000000
     2.171666    1.296144    3.666049
   Og
   1
Direct configuration=    13
   0.00000000  0.00000000  0.00000000
Og_FCC                                  
           1
     4.489975    0.000000    0.000000
     2.244987    3.888432   -0.000000
     2.244987    1.296144    3.666049
   Og
   1
Direct configuration=    14
   0.00445437  0.00000000 -0.00000000
Og_FCC                                  
           1
     4.489975    0.000000    0.000000
     2.244987    3.888432   -0.000000
     2.244987    1.296144    3.666049
   Og
   1
Direct configuration=    15
  -0.00445437 -0.00000000  0.00000000
