   1   1   0   0
  0.5789729E+02  0.4342346E-09  0.4342346E-09  0.4342346E-09  0.1000000E-15
  1.000000000000000E-004
  CAR 
 Og_FCC                                  
     58.00652345    -34.68852934  301      3.96122264      1.00000000
    -34.689  0.0000E+00  0.0000E+00
    -34.380  0.0000E+00  0.0000E+00
    -34.071  0.0000E+00  0.0000E+00
    -33.762  0.0000E+00  0.0000E+00
    -33.453  0.0000E+00  0.0000E+00
    -33.144  0.0000E+00  0.0000E+00
    -32.835  0.0000E+00  0.0000E+00
    -32.526  0.0000E+00  0.0000E+00
    -32.217  0.0000E+00  0.0000E+00
    -31.908  0.0000E+00  0.0000E+00
    -31.599  0.0000E+00  0.0000E+00
    -31.290  0.0000E+00  0.0000E+00
    -30.981  0.0000E+00  0.0000E+00
    -30.672  0.0000E+00  0.0000E+00
    -30.363  0.0000E+00  0.4000E+01
    -30.054  0.0000E+00  0.4000E+01
    -29.745  0.0000E+00  0.4000E+01
    -29.436  0.0000E+00  0.4000E+01
    -29.127  0.0000E+00  0.4000E+01
    -28.818  0.0000E+00  0.4000E+01
    -28.509  0.0000E+00  0.4000E+01
    -28.200  0.0000E+00  0.4000E+01
    -27.891  0.0000E+00  0.4000E+01
    -27.582  0.0000E+00  0.4000E+01
    -27.273  0.0000E+00  0.4000E+01
    -26.964  0.0000E+00  0.4000E+01
    -26.655  0.0000E+00  0.4000E+01
    -26.346  0.0000E+00  0.4000E+01
    -26.037  0.0000E+00  0.4000E+01
    -25.728  0.0000E+00  0.4000E+01
    -25.419  0.0000E+00  0.4000E+01
    -25.110  0.0000E+00  0.4000E+01
    -24.801  0.0000E+00  0.4000E+01
    -24.492  0.0000E+00  0.4000E+01
    -24.183  0.0000E+00  0.4000E+01
    -23.874  0.0000E+00  0.4000E+01
    -23.565  0.0000E+00  0.1000E+02
    -23.256  0.0000E+00  0.1000E+02
    -22.947  0.0000E+00  0.1000E+02
    -22.638  0.0000E+00  0.1000E+02
    -22.329  0.0000E+00  0.1000E+02
    -22.020  0.0000E+00  0.1000E+02
    -21.711  0.0000E+00  0.1000E+02
    -21.402  0.0000E+00  0.1000E+02
    -21.093  0.0000E+00  0.1000E+02
    -20.784  0.0000E+00  0.1000E+02
    -20.475  0.0000E+00  0.1000E+02
    -20.166  0.0000E+00  0.1009E+02
    -19.857  0.0000E+00  0.1200E+02
    -19.548  0.0000E+00  0.1200E+02
    -19.239  0.0000E+00  0.1200E+02
    -18.930  0.0000E+00  0.1200E+02
    -18.621  0.0000E+00  0.1200E+02
    -18.312  0.0000E+00  0.1200E+02
    -18.003  0.0000E+00  0.1200E+02
    -17.694  0.0000E+00  0.1200E+02
    -17.385  0.0000E+00  0.1200E+02
    -17.076  0.0000E+00  0.1200E+02
    -16.767  0.0000E+00  0.1200E+02
    -16.459  0.0000E+00  0.1200E+02
    -16.150  0.0000E+00  0.1200E+02
    -15.841  0.0000E+00  0.1200E+02
    -15.532  0.0000E+00  0.1200E+02
    -15.223  0.0000E+00  0.1200E+02
    -14.914  0.0000E+00  0.1200E+02
    -14.605  0.0000E+00  0.1200E+02
    -14.296  0.0000E+00  0.1200E+02
    -13.987  0.0000E+00  0.1200E+02
    -13.678  0.0000E+00  0.1200E+02
    -13.369  0.0000E+00  0.1200E+02
    -13.060  0.0000E+00  0.1200E+02
    -12.751  0.0000E+00  0.1200E+02
    -12.442  0.0000E+00  0.1200E+02
    -12.133  0.0000E+00  0.1200E+02
    -11.824  0.0000E+00  0.1200E+02
    -11.515  0.0000E+00  0.1200E+02
    -11.206  0.0000E+00  0.1200E+02
    -10.897  0.0000E+00  0.1200E+02
    -10.588  0.0000E+00  0.1200E+02
    -10.279  0.0000E+00  0.1200E+02
     -9.970  0.0000E+00  0.1200E+02
     -9.661  0.0000E+00  0.1200E+02
     -9.352  0.0000E+00  0.1200E+02
     -9.043  0.0000E+00  0.1200E+02
     -8.734  0.0000E+00  0.1200E+02
     -8.425  0.0000E+00  0.1200E+02
     -8.116  0.0000E+00  0.1200E+02
     -7.807  0.0000E+00  0.1200E+02
     -7.498  0.0000E+00  0.1200E+02
     -7.189  0.0000E+00  0.1366E+02
     -6.880  0.0000E+00  0.1400E+02
     -6.571  0.0000E+00  0.1400E+02
     -6.262  0.0000E+00  0.1400E+02
     -5.953  0.0000E+00  0.1400E+02
     -5.644  0.0000E+00  0.1400E+02
     -5.335  0.0000E+00  0.1400E+02
     -5.026  0.0000E+00  0.1400E+02
     -4.717  0.0000E+00  0.1400E+02
     -4.408  0.0000E+00  0.1400E+02
     -4.099  0.0000E+00  0.1400E+02
     -3.790  0.0000E+00  0.1400E+02
     -3.481  0.0000E+00  0.1400E+02
     -3.172  0.0000E+00  0.1400E+02
     -2.863  0.0000E+00  0.1400E+02
     -2.554  0.0000E+00  0.1400E+02
     -2.245  0.0000E+00  0.1400E+02
     -1.936  0.0000E+00  0.1400E+02
     -1.627  0.0000E+00  0.1400E+02
     -1.318  0.0000E+00  0.1400E+02
     -1.009  0.0000E+00  0.1400E+02
     -0.700  0.0000E+00  0.1400E+02
     -0.391  0.0000E+00  0.1400E+02
     -0.082  0.0000E+00  0.1400E+02
      0.227  0.0000E+00  0.1400E+02
      0.536  0.0000E+00  0.1400E+02
      0.845  0.9058E+00  0.1471E+02
      1.154  0.0000E+00  0.1562E+02
      1.463  0.0000E+00  0.1570E+02
      1.772  0.8737E-08  0.1591E+02
      2.081  0.0000E+00  0.1619E+02
      2.389  0.0000E+00  0.1682E+02
      2.698  0.4529E+00  0.1715E+02
      3.007  0.0000E+00  0.1746E+02
      3.316  0.0000E+00  0.1774E+02
      3.625  0.0000E+00  0.1794E+02
      3.934  0.0000E+00  0.1799E+02
      4.243  0.0000E+00  0.1801E+02
      4.552  0.0000E+00  0.1801E+02
      4.861  0.0000E+00  0.1801E+02
      5.170  0.0000E+00  0.1801E+02
      5.479  0.0000E+00  0.1805E+02
      5.788  0.0000E+00  0.1809E+02
      6.097  0.0000E+00  0.1809E+02
      6.406  0.0000E+00  0.1825E+02
      6.715  0.0000E+00  0.1850E+02
      7.024  0.0000E+00  0.1895E+02
      7.333  0.4422E+00  0.1937E+02
      7.642  0.0000E+00  0.1965E+02
      7.951  0.0000E+00  0.2003E+02
      8.260  0.0000E+00  0.2010E+02
      8.569  0.0000E+00  0.2028E+02
      8.878  0.0000E+00  0.2091E+02
      9.187  0.0000E+00  0.2133E+02
      9.496  0.0000E+00  0.2192E+02
      9.805  0.0000E+00  0.2203E+02
     10.114  0.2556E-04  0.2236E+02
     10.423  0.0000E+00  0.2315E+02
     10.732  0.4384E-02  0.2351E+02
     11.041  0.1167E-01  0.2400E+02
     11.350  0.2642E+00  0.2461E+02
     11.659  0.6228E-15  0.2500E+02
     11.968  0.0000E+00  0.2578E+02
     12.277  0.0000E+00  0.2582E+02
     12.586  0.9058E+00  0.2647E+02
     12.895  0.1827E+00  0.2693E+02
     13.204  0.1132E+00  0.2784E+02
     13.513  0.4529E+00  0.2841E+02
     13.822  0.0000E+00  0.2864E+02
     14.131  0.0000E+00  0.2902E+02
     14.440  0.0000E+00  0.2985E+02
     14.749  0.0000E+00  0.3035E+02
     15.058  0.0000E+00  0.3126E+02
     15.367  0.0000E+00  0.3175E+02
     15.676  0.0000E+00  0.3229E+02
     15.985  0.0000E+00  0.3248E+02
     16.294  0.0000E+00  0.3263E+02
     16.603  0.1510E+00  0.3285E+02
     16.912  0.0000E+00  0.3324E+02
     17.221  0.0000E+00  0.3478E+02
     17.530  0.0000E+00  0.3578E+02
     17.839  0.0000E+00  0.3679E+02
     18.148  0.0000E+00  0.3739E+02
     18.457  0.0000E+00  0.3901E+02
     18.766  0.0000E+00  0.4031E+02
     19.075  0.0000E+00  0.4177E+02
     19.384  0.2265E+00  0.4245E+02
     19.693  0.0000E+00  0.4259E+02
     20.002  0.4529E+00  0.4372E+02
     20.311  0.0000E+00  0.4480E+02
     20.620  0.0000E+00  0.4586E+02
     20.929  0.0000E+00  0.4605E+02
     21.237  0.0000E+00  0.4619E+02
     21.546  0.0000E+00  0.4629E+02
     21.855  0.0000E+00  0.4682E+02
     22.164  0.0000E+00  0.4718E+02
     22.473  0.0000E+00  0.4781E+02
     22.782  0.0000E+00  0.4792E+02
     23.091  0.0000E+00  0.4852E+02
     23.400  0.0000E+00  0.4940E+02
     23.709  0.0000E+00  0.4982E+02
     24.018  0.4529E+00  0.5048E+02
     24.327  0.2642E+00  0.5135E+02
     24.636  0.0000E+00  0.5201E+02
     24.945  0.1132E+00  0.5327E+02
     25.254  0.0000E+00  0.5426E+02
     25.563  0.6305E-14  0.5557E+02
     25.872  0.0000E+00  0.5624E+02
     26.181  0.0000E+00  0.5690E+02
     26.490  0.0000E+00  0.5699E+02
     26.799  0.0000E+00  0.5780E+02
     27.108  0.1882E-12  0.5823E+02
     27.417  0.0000E+00  0.5918E+02
     27.726  0.0000E+00  0.6009E+02
     28.035  0.0000E+00  0.6049E+02
     28.344  0.0000E+00  0.6071E+02
     28.653  0.0000E+00  0.6113E+02
     28.962  0.0000E+00  0.6185E+02
     29.271  0.0000E+00  0.6248E+02
     29.580  0.3780E+00  0.6324E+02
     29.889  0.5945E+00  0.6387E+02
     30.198  0.1456E-04  0.6447E+02
     30.507  0.4529E+00  0.6532E+02
     30.816  0.1305E-14  0.6578E+02
     31.125  0.0000E+00  0.6667E+02
     31.434  0.1510E+00  0.6696E+02
     31.743  0.6794E+00  0.6798E+02
     32.052  0.0000E+00  0.6925E+02
     32.361  0.0000E+00  0.6996E+02
     32.670  0.4529E+00  0.7085E+02
     32.979  0.0000E+00  0.7190E+02
     33.288  0.0000E+00  0.7240E+02
     33.597  0.0000E+00  0.7341E+02
     33.906  0.0000E+00  0.7376E+02
     34.215  0.0000E+00  0.7448E+02
     34.524  0.2416E-08  0.7537E+02
     34.833  0.0000E+00  0.7635E+02
     35.142  0.1132E+00  0.7657E+02
     35.451  0.0000E+00  0.7784E+02
     35.760  0.0000E+00  0.7897E+02
     36.069  0.0000E+00  0.7963E+02
     36.378  0.1510E+00  0.8056E+02
     36.687  0.2965E+00  0.8139E+02
     36.996  0.0000E+00  0.8247E+02
     37.305  0.0000E+00  0.8345E+02
     37.614  0.0000E+00  0.8356E+02
     37.923  0.4529E+00  0.8413E+02
     38.232  0.0000E+00  0.8550E+02
     38.541  0.0000E+00  0.8567E+02
     38.850  0.1131E+00  0.8615E+02
     39.159  0.0000E+00  0.8714E+02
     39.468  0.1509E+00  0.8791E+02
     39.776  0.0000E+00  0.8873E+02
     40.085  0.0000E+00  0.8923E+02
     40.394  0.0000E+00  0.8983E+02
     40.703  0.0000E+00  0.9076E+02
     41.012  0.4529E+00  0.9216E+02
     41.321  0.4529E+00  0.9268E+02
     41.630  0.2294E-15  0.9374E+02
     41.939  0.0000E+00  0.9413E+02
     42.248  0.2295E+00  0.9499E+02
     42.557  0.0000E+00  0.9622E+02
     42.866  0.2831E-01  0.9708E+02
     43.175  0.6416E+00  0.9815E+02
     43.484  0.9354E-12  0.9890E+02
     43.793  0.0000E+00  0.9957E+02
     44.102  0.0000E+00  0.9999E+02
     44.411  0.0000E+00  0.1009E+03
     44.720  0.4529E+00  0.1018E+03
     45.029  0.0000E+00  0.1028E+03
     45.338  0.3143E-17  0.1033E+03
     45.647  0.4529E+00  0.1039E+03
     45.956  0.6253E-05  0.1056E+03
     46.265  0.4529E+00  0.1064E+03
     46.574  0.0000E+00  0.1074E+03
     46.883  0.0000E+00  0.1082E+03
     47.192  0.0000E+00  0.1093E+03
     47.501  0.0000E+00  0.1098E+03
     47.810  0.2252E+00  0.1106E+03
     48.119  0.0000E+00  0.1116E+03
     48.428  0.3774E+00  0.1125E+03
     48.737  0.0000E+00  0.1136E+03
     49.046  0.0000E+00  0.1139E+03
     49.355  0.0000E+00  0.1153E+03
     49.664  0.0000E+00  0.1161E+03
     49.973  0.0000E+00  0.1170E+03
     50.282  0.2026E-07  0.1180E+03
     50.591  0.1510E+00  0.1190E+03
     50.900  0.0000E+00  0.1197E+03
     51.209  0.0000E+00  0.1205E+03
     51.518  0.0000E+00  0.1215E+03
     51.827  0.2062E-04  0.1222E+03
     52.136  0.0000E+00  0.1233E+03
     52.445  0.0000E+00  0.1244E+03
     52.754  0.4524E-05  0.1251E+03
     53.063  0.0000E+00  0.1266E+03
     53.372  0.0000E+00  0.1274E+03
     53.681  0.0000E+00  0.1275E+03
     53.990  0.0000E+00  0.1280E+03
     54.299  0.0000E+00  0.1280E+03
     54.608  0.0000E+00  0.1280E+03
     54.917  0.0000E+00  0.1280E+03
     55.226  0.0000E+00  0.1280E+03
     55.535  0.0000E+00  0.1280E+03
     55.844  0.0000E+00  0.1280E+03
     56.153  0.0000E+00  0.1280E+03
     56.462  0.0000E+00  0.1280E+03
     56.771  0.0000E+00  0.1280E+03
     57.080  0.0000E+00  0.1280E+03
     57.389  0.0000E+00  0.1280E+03
     57.698  0.0000E+00  0.1280E+03
     58.007  0.0000E+00  0.1280E+03
