    1    1    1    1
  0.5789729E+02  0.4342346E-09  0.4342346E-09  0.4342346E-09  0.1000000E-15
  1.000000000000000E-004
  CAR 
 Og_FCC                                  
     18    343    128
 
  0.0000000E+00  0.0000000E+00  0.0000000E+00  0.2915452E-02
    1      -30.470656   1.000000
    2      -30.470606   1.000000
    3      -30.470521   1.000000
    4      -30.470470   1.000000
    5      -23.804134   1.000000
    6      -23.803864   1.000000
    7      -23.803705   1.000000
    8      -23.803434   1.000000
    9      -23.802921   1.000000
   10      -23.802449   1.000000
   11      -20.209001   1.000000
   12      -20.208485   1.000000
   13       -6.915053   1.000000
   14       -6.914380   1.000000
   15        3.712737   1.000000
   16        3.712967   1.000000
   17        3.959722   0.983114
   18        3.959762   0.980574
   19        3.962683   0.019434
   20        3.962724   0.016877
   21       10.878536   0.000000
   22       10.878659   0.000000
   23       10.879070   0.000000
   24       10.879193   0.000000
   25       11.116001   0.000000
   26       11.116377   0.000000
   27       11.302875   0.000000
   28       11.303788   0.000000
   29       13.215741   0.000000
   30       13.217639   0.000000
   31       13.520113   0.000000
   32       13.520287   0.000000
   33       13.520752   0.000000
   34       13.520926   0.000000
   35       14.354771   0.000000
   36       14.355576   0.000000
   37       14.356215   0.000000
   38       14.357019   0.000000
   39       16.261805   0.000000
   40       16.261950   0.000000
   41       20.396835   0.000000
   42       20.397012   0.000000
   43       20.397339   0.000000
   44       20.397706   0.000000
   45       20.398033   0.000000
   46       20.398210   0.000000
   47       22.957213   0.000000
   48       22.957763   0.000000
   49       26.245582   0.000000
   50       26.245708   0.000000
   51       26.246825   0.000000
   52       26.246951   0.000000
   53       26.450050   0.000000
   54       26.450520   0.000000
   55       27.769501   0.000000
   56       27.770564   0.000000
   57       29.416666   0.000000
   58       29.417154   0.000000
   59       29.417591   0.000000
   60       29.418080   0.000000
   61       30.178859   0.000000
   62       30.179234   0.000000
   63       30.343719   0.000000
   64       30.343947   0.000000
   65       30.344347   0.000000
   66       30.344577   0.000000
   67       30.788073   0.000000
   68       30.788166   0.000000
   69       31.611445   0.000000
   70       31.611518   0.000000
   71       31.612213   0.000000
   72       31.612286   0.000000
   73       37.791405   0.000000
   74       37.791862   0.000000
   75       37.791929   0.000000
   76       37.792100   0.000000
   77       37.792167   0.000000
   78       37.792623   0.000000
   79       38.586560   0.000000
   80       38.587484   0.000000
   81       38.619172   0.000000
   82       38.619594   0.000000
   83       38.619748   0.000000
   84       38.621213   0.000000
   85       38.621368   0.000000
   86       38.621790   0.000000
   87       41.120632   0.000000
   88       41.120828   0.000000
   89       41.121007   0.000000
   90       41.121203   0.000000
   91       41.305930   0.000000
   92       41.306239   0.000000
   93       42.578943   0.000000
   94       42.579282   0.000000
   95       42.857684   0.000000
   96       42.858333   0.000000
   97       42.858757   0.000000
   98       42.859405   0.000000
   99       43.169549   0.000000
  100       43.169774   0.000000
  101       43.170094   0.000000
  102       43.170319   0.000000
  103       44.062200   0.000000
  104       44.062285   0.000000
  105       44.063556   0.000000
  106       44.063642   0.000000
  107       44.140260   0.000000
  108       44.140597   0.000000
  109       44.141128   0.000000
  110       44.141465   0.000000
  111       44.332283   0.000000
  112       44.332885   0.000000
  113       45.276803   0.000000
  114       45.277288   0.000000
  115       45.684729   0.000000
  116       45.685692   0.000000
  117       46.140057   0.000000
  118       46.140182   0.000000
  119       46.140833   0.000000
  120       46.140958   0.000000
  121       46.665937   0.000000
  122       46.666023   0.000000
  123       47.026827   0.000000
  124       47.026902   0.000000
  125       47.027176   0.000000
  126       47.027252   0.000000
  127       47.156171   0.000000
  128       47.156814   0.000000
 
  0.1428571E+00  0.1343080E-17  0.2775558E-16  0.2915452E-02
    1      -30.449285   1.000000
    2      -30.449192   1.000000
    3      -30.447100   1.000000
    4      -30.447093   1.000000
    5      -23.789333   1.000000
    6      -23.789242   1.000000
    7      -23.788342   1.000000
    8      -23.787881   1.000000
    9      -23.786763   1.000000
   10      -23.786311   1.000000
   11      -20.188090   1.000000
   12      -20.187575   1.000000
   13       -6.983553   1.000000
   14       -6.982884   1.000000
   15        2.399827   1.000000
   16        2.400073   1.000000
   17        3.841955   1.000000
   18        3.842466   1.000000
   19        5.324651   0.000000
   20        5.324804   0.000000
   21        9.886814   0.000000
   22        9.887014   0.000000
   23       11.042040   0.000000
   24       11.042073   0.000000
   25       11.346742   0.000000
   26       11.347314   0.000000
   27       12.295074   0.000000
   28       12.295776   0.000000
   29       12.573936   0.000000
   30       12.575221   0.000000
   31       12.730229   0.000000
   32       12.730379   0.000000
   33       13.438553   0.000000
   34       13.438745   0.000000
   35       15.596210   0.000000
   36       15.597700   0.000000
   37       15.736957   0.000000
   38       15.737182   0.000000
   39       17.649586   0.000000
   40       17.649886   0.000000
   41       20.066571   0.000000
   42       20.067062   0.000000
   43       20.156597   0.000000
   44       20.156760   0.000000
   45       20.467923   0.000000
   46       20.468952   0.000000
   47       22.081119   0.000000
   48       22.081615   0.000000
   49       25.344175   0.000000
   50       25.344572   0.000000
   51       25.776847   0.000000
   52       25.776974   0.000000
   53       26.070919   0.000000
   54       26.071161   0.000000
   55       27.252060   0.000000
   56       27.253016   0.000000
   57       28.093359   0.000000
   58       28.093430   0.000000
   59       28.918265   0.000000
   60       28.918474   0.000000
   61       30.073204   0.000000
   62       30.073437   0.000000
   63       30.121363   0.000000
   64       30.122262   0.000000
   65       30.821312   0.000000
   66       30.821725   0.000000
   67       30.884067   0.000000
   68       30.884213   0.000000
   69       32.813172   0.000000
   70       32.813370   0.000000
   71       35.213359   0.000000
   72       35.213851   0.000000
   73       35.802222   0.000000
   74       35.802540   0.000000
   75       36.659693   0.000000
   76       36.660068   0.000000
   77       36.697807   0.000000
   78       36.697948   0.000000
   79       36.973004   0.000000
   80       36.973546   0.000000
   81       38.902636   0.000000
   82       38.903166   0.000000
   83       39.210107   0.000000
   84       39.210294   0.000000
   85       39.407278   0.000000
   86       39.407514   0.000000
   87       39.888904   0.000000
   88       39.888947   0.000000
   89       40.192367   0.000000
   90       40.192767   0.000000
   91       40.501541   0.000000
   92       40.502001   0.000000
   93       40.728942   0.000000
   94       40.729049   0.000000
   95       41.094174   0.000000
   96       41.094729   0.000000
   97       41.478829   0.000000
   98       41.479118   0.000000
   99       42.803928   0.000000
  100       42.804036   0.000000
  101       43.171314   0.000000
  102       43.171731   0.000000
  103       43.400871   0.000000
  104       43.401710   0.000000
  105       44.046574   0.000000
  106       44.046790   0.000000
  107       44.710498   0.000000
  108       44.710637   0.000000
  109       44.778946   0.000000
  110       44.779568   0.000000
  111       44.862626   0.000000
  112       44.863227   0.000000
  113       46.213467   0.000000
  114       46.213539   0.000000
  115       46.543423   0.000000
  116       46.543738   0.000000
  117       47.030470   0.000000
  118       47.030588   0.000000
  119       47.944158   0.000000
  120       47.944385   0.000000
  121       48.868746   0.000000
  122       48.869111   0.000000
  123       48.964239   0.000000
  124       48.964387   0.000000
  125       49.753112   0.000000
  126       49.753224   0.000000
  127       51.565011   0.000000
  128       51.565543   0.000000
 
  0.2857143E+00  0.2686160E-17  0.1387779E-16  0.2915452E-02
    1      -30.456043   1.000000
    2      -30.455950   1.000000
    3      -30.453852   1.000000
    4      -30.453845   1.000000
    5      -23.793124   1.000000
    6      -23.792730   1.000000
    7      -23.791370   1.000000
    8      -23.790957   1.000000
    9      -23.789067   1.000000
   10      -23.788980   1.000000
   11      -20.141460   1.000000
   12      -20.140946   1.000000
   13       -7.138182   1.000000
   14       -7.137521   1.000000
   15        1.341990   1.000000
   16        1.342336   1.000000
   17        3.597968   1.000000
   18        3.598450   1.000000
   19        6.144178   0.000000
   20        6.144584   0.000000
   21       10.116713   0.000000
   22       10.116774   0.000000
   23       10.770627   0.000000
   24       10.770699   0.000000
   25       11.181512   0.000000
   26       11.182466   0.000000
   27       11.402225   0.000000
   28       11.402851   0.000000
   29       12.906205   0.000000
   30       12.906443   0.000000
   31       13.159832   0.000000
   32       13.159948   0.000000
   33       15.846436   0.000000
   34       15.846706   0.000000
   35       17.338680   0.000000
   36       17.340285   0.000000
   37       17.501765   0.000000
   38       17.502019   0.000000
   39       18.731862   0.000000
   40       18.731951   0.000000
   41       19.186304   0.000000
   42       19.186496   0.000000
   43       19.929152   0.000000
   44       19.929328   0.000000
   45       20.239839   0.000000
   46       20.240242   0.000000
   47       20.579564   0.000000
   48       20.580607   0.000000
   49       24.034177   0.000000
   50       24.034590   0.000000
   51       25.320631   0.000000
   52       25.320728   0.000000
   53       25.438373   0.000000
   54       25.438599   0.000000
   55       26.678721   0.000000
   56       26.679249   0.000000
   57       27.160189   0.000000
   58       27.160668   0.000000
   59       27.866431   0.000000
   60       27.866580   0.000000
   61       30.072227   0.000000
   62       30.072459   0.000000
   63       30.847916   0.000000
   64       30.848192   0.000000
   65       31.512147   0.000000
   66       31.512783   0.000000
   67       31.814042   0.000000
   68       31.814587   0.000000
   69       32.445029   0.000000
   70       32.445170   0.000000
   71       32.782279   0.000000
   72       32.782958   0.000000
   73       34.090268   0.000000
   74       34.090592   0.000000
   75       35.006220   0.000000
   76       35.006318   0.000000
   77       35.625666   0.000000
   78       35.625967   0.000000
   79       36.333085   0.000000
   80       36.333440   0.000000
   81       36.372421   0.000000
   82       36.372552   0.000000
   83       36.659976   0.000000
   84       36.660081   0.000000
   85       39.355932   0.000000
   86       39.356113   0.000000
   87       39.369752   0.000000
   88       39.370350   0.000000
   89       39.756607   0.000000
   90       39.757085   0.000000
   91       40.756215   0.000000
   92       40.756286   0.000000
   93       40.903626   0.000000
   94       40.903774   0.000000
   95       41.851946   0.000000
   96       41.852193   0.000000
   97       42.702798   0.000000
   98       42.702894   0.000000
   99       42.805598   0.000000
  100       42.806531   0.000000
  101       43.489452   0.000000
  102       43.489755   0.000000
  103       44.058005   0.000000
  104       44.058568   0.000000
  105       44.179117   0.000000
  106       44.179672   0.000000
  107       45.461940   0.000000
  108       45.462362   0.000000
  109       45.733404   0.000000
  110       45.733554   0.000000
  111       45.749970   0.000000
  112       45.750681   0.000000
  113       47.132495   0.000000
  114       47.132603   0.000000
  115       50.252783   0.000000
  116       50.253196   0.000000
  117       50.587761   0.000000
  118       50.587822   0.000000
  119       50.791129   0.000000
  120       50.791232   0.000000
  121       51.071970   0.000000
  122       51.072184   0.000000
  123       51.253027   0.000000
  124       51.253304   0.000000
  125       51.533960   0.000000
  126       51.534050   0.000000
  127       51.783572   0.000000
  128       51.784046   0.000000
 
  0.4285714E+00  0.4029240E-17  0.2775558E-16  0.2915452E-02
    1      -30.460919   1.000000
    2      -30.460826   1.000000
    3      -30.447673   1.000000
    4      -30.447665   1.000000
    5      -23.796182   1.000000
    6      -23.796069   1.000000
    7      -23.787938   1.000000
    8      -23.787800   1.000000
    9      -23.784349   1.000000
   10      -23.784263   1.000000
   11      -20.103261   1.000000
   12      -20.102748   1.000000
   13       -7.262881   1.000000
   14       -7.262226   1.000000
   15        0.787484   1.000000
   16        0.787880   1.000000
   17        3.421589   1.000000
   18        3.422053   1.000000
   19        6.220147   0.000000
   20        6.220644   0.000000
   21       10.372493   0.000000
   22       10.372577   0.000000
   23       10.558567   0.000000
   24       10.559055   0.000000
   25       10.779842   0.000000
   26       10.780958   0.000000
   27       11.808375   0.000000
   28       11.808422   0.000000
   29       14.244291   0.000000
   30       14.244674   0.000000
   31       14.452216   0.000000
   32       14.452308   0.000000
   33       16.596867   0.000000
   34       16.597446   0.000000
   35       17.549136   0.000000
   36       17.549470   0.000000
   37       17.605681   0.000000
   38       17.605908   0.000000
   39       18.187314   0.000000
   40       18.187693   0.000000
   41       18.867298   0.000000
   42       18.868813   0.000000
   43       18.874504   0.000000
   44       18.874797   0.000000
   45       20.680168   0.000000
   46       20.681224   0.000000
   47       22.740035   0.000000
   48       22.740669   0.000000
   49       24.104586   0.000000
   50       24.104954   0.000000
   51       25.001377   0.000000
   52       25.001525   0.000000
   53       25.469773   0.000000
   54       25.469885   0.000000
   55       25.891476   0.000000
   56       25.891748   0.000000
   57       27.009209   0.000000
   58       27.009707   0.000000
   59       27.366823   0.000000
   60       27.366929   0.000000
   61       28.714016   0.000000
   62       28.714183   0.000000
   63       29.881428   0.000000
   64       29.881980   0.000000
   65       30.985480   0.000000
   66       30.985651   0.000000
   67       31.430302   0.000000
   68       31.430620   0.000000
   69       31.726503   0.000000
   70       31.726765   0.000000
   71       32.342509   0.000000
   72       32.342881   0.000000
   73       32.807628   0.000000
   74       32.808337   0.000000
   75       33.177950   0.000000
   76       33.178263   0.000000
   77       34.128847   0.000000
   78       34.129344   0.000000
   79       34.373051   0.000000
   80       34.373179   0.000000
   81       35.885461   0.000000
   82       35.885526   0.000000
   83       36.644395   0.000000
   84       36.644446   0.000000
   85       39.446449   0.000000
   86       39.446616   0.000000
   87       39.464364   0.000000
   88       39.465138   0.000000
   89       40.165935   0.000000
   90       40.166012   0.000000
   91       40.325525   0.000000
   92       40.325910   0.000000
   93       40.643789   0.000000
   94       40.644093   0.000000
   95       41.978462   0.000000
   96       41.978829   0.000000
   97       42.319054   0.000000
   98       42.319473   0.000000
   99       44.321090   0.000000
  100       44.321177   0.000000
  101       45.731878   0.000000
  102       45.732531   0.000000
  103       45.958904   0.000000
  104       45.959032   0.000000
  105       46.269453   0.000000
  106       46.270074   0.000000
  107       46.446113   0.000000
  108       46.446244   0.000000
  109       47.894485   0.000000
  110       47.894815   0.000000
  111       48.518743   0.000000
  112       48.519251   0.000000
  113       48.690687   0.000000
  114       48.690809   0.000000
  115       48.839704   0.000000
  116       48.840093   0.000000
  117       51.056544   0.000000
  118       51.056974   0.000000
  119       51.848805   0.000000
  120       51.848810   0.000000
  121       52.246794   0.000000
  122       52.247475   0.000000
  123       52.475723   0.000000
  124       52.476051   0.000000
  125       53.075676   0.000000
  126       53.075872   0.000000
  127       53.089497   0.000000
  128       53.090310   0.000000
 
 -0.4285714E+00 -0.4029240E-17 -0.2775558E-16  0.2915452E-02
    1      -30.460919   1.000000
    2      -30.460826   1.000000
    3      -30.447673   1.000000
    4      -30.447665   1.000000
    5      -23.796182   1.000000
    6      -23.796069   1.000000
    7      -23.787938   1.000000
    8      -23.787800   1.000000
    9      -23.784349   1.000000
   10      -23.784263   1.000000
   11      -20.103261   1.000000
   12      -20.102748   1.000000
   13       -7.262881   1.000000
   14       -7.262226   1.000000
   15        0.787484   1.000000
   16        0.787880   1.000000
   17        3.421589   1.000000
   18        3.422053   1.000000
   19        6.220147   0.000000
   20        6.220644   0.000000
   21       10.372493   0.000000
   22       10.372577   0.000000
   23       10.558567   0.000000
   24       10.559055   0.000000
   25       10.779842   0.000000
   26       10.780958   0.000000
   27       11.808375   0.000000
   28       11.808422   0.000000
   29       14.244292   0.000000
   30       14.244675   0.000000
   31       14.452217   0.000000
   32       14.452308   0.000000
   33       16.596867   0.000000
   34       16.597446   0.000000
   35       17.549136   0.000000
   36       17.549470   0.000000
   37       17.605681   0.000000
   38       17.605908   0.000000
   39       18.187314   0.000000
   40       18.187693   0.000000
   41       18.867298   0.000000
   42       18.868813   0.000000
   43       18.874504   0.000000
   44       18.874797   0.000000
   45       20.680168   0.000000
   46       20.681224   0.000000
   47       22.740035   0.000000
   48       22.740669   0.000000
   49       24.104586   0.000000
   50       24.104953   0.000000
   51       25.001377   0.000000
   52       25.001526   0.000000
   53       25.469773   0.000000
   54       25.469885   0.000000
   55       25.891476   0.000000
   56       25.891748   0.000000
   57       27.009209   0.000000
   58       27.009707   0.000000
   59       27.366823   0.000000
   60       27.366929   0.000000
   61       28.714016   0.000000
   62       28.714183   0.000000
   63       29.881428   0.000000
   64       29.881980   0.000000
   65       30.985480   0.000000
   66       30.985651   0.000000
   67       31.430302   0.000000
   68       31.430620   0.000000
   69       31.726503   0.000000
   70       31.726765   0.000000
   71       32.342509   0.000000
   72       32.342881   0.000000
   73       32.807628   0.000000
   74       32.808337   0.000000
   75       33.177950   0.000000
   76       33.178263   0.000000
   77       34.128847   0.000000
   78       34.129344   0.000000
   79       34.373051   0.000000
   80       34.373179   0.000000
   81       35.885461   0.000000
   82       35.885526   0.000000
   83       36.644395   0.000000
   84       36.644446   0.000000
   85       39.446449   0.000000
   86       39.446616   0.000000
   87       39.464365   0.000000
   88       39.465139   0.000000
   89       40.165935   0.000000
   90       40.166012   0.000000
   91       40.325525   0.000000
   92       40.325910   0.000000
   93       40.643789   0.000000
   94       40.644093   0.000000
   95       41.978462   0.000000
   96       41.978829   0.000000
   97       42.319054   0.000000
   98       42.319473   0.000000
   99       44.321090   0.000000
  100       44.321177   0.000000
  101       45.731878   0.000000
  102       45.732531   0.000000
  103       45.958904   0.000000
  104       45.959032   0.000000
  105       46.269453   0.000000
  106       46.270074   0.000000
  107       46.446113   0.000000
  108       46.446244   0.000000
  109       47.894484   0.000000
  110       47.894815   0.000000
  111       48.518743   0.000000
  112       48.519250   0.000000
  113       48.690687   0.000000
  114       48.690809   0.000000
  115       48.839704   0.000000
  116       48.840093   0.000000
  117       51.056544   0.000000
  118       51.056974   0.000000
  119       51.848805   0.000000
  120       51.848811   0.000000
  121       52.246794   0.000000
  122       52.247475   0.000000
  123       52.475723   0.000000
  124       52.476051   0.000000
  125       53.075675   0.000000
  126       53.075872   0.000000
  127       53.089497   0.000000
  128       53.090310   0.000000
 
 -0.2857143E+00 -0.2686160E-17 -0.1387779E-16  0.2915452E-02
    1      -30.456043   1.000000
    2      -30.455950   1.000000
    3      -30.453852   1.000000
    4      -30.453845   1.000000
    5      -23.793124   1.000000
    6      -23.792730   1.000000
    7      -23.791370   1.000000
    8      -23.790957   1.000000
    9      -23.789067   1.000000
   10      -23.788980   1.000000
   11      -20.141460   1.000000
   12      -20.140946   1.000000
   13       -7.138182   1.000000
   14       -7.137521   1.000000
   15        1.341990   1.000000
   16        1.342336   1.000000
   17        3.597968   1.000000
   18        3.598450   1.000000
   19        6.144178   0.000000
   20        6.144584   0.000000
   21       10.116712   0.000000
   22       10.116773   0.000000
   23       10.770627   0.000000
   24       10.770699   0.000000
   25       11.181513   0.000000
   26       11.182466   0.000000
   27       11.402225   0.000000
   28       11.402850   0.000000
   29       12.906205   0.000000
   30       12.906443   0.000000
   31       13.159832   0.000000
   32       13.159949   0.000000
   33       15.846436   0.000000
   34       15.846706   0.000000
   35       17.338681   0.000000
   36       17.340285   0.000000
   37       17.501765   0.000000
   38       17.502019   0.000000
   39       18.731862   0.000000
   40       18.731951   0.000000
   41       19.186304   0.000000
   42       19.186496   0.000000
   43       19.929152   0.000000
   44       19.929329   0.000000
   45       20.239839   0.000000
   46       20.240242   0.000000
   47       20.579564   0.000000
   48       20.580607   0.000000
   49       24.034177   0.000000
   50       24.034589   0.000000
   51       25.320631   0.000000
   52       25.320728   0.000000
   53       25.438373   0.000000
   54       25.438599   0.000000
   55       26.678721   0.000000
   56       26.679248   0.000000
   57       27.160189   0.000000
   58       27.160668   0.000000
   59       27.866431   0.000000
   60       27.866580   0.000000
   61       30.072227   0.000000
   62       30.072460   0.000000
   63       30.847916   0.000000
   64       30.848192   0.000000
   65       31.512147   0.000000
   66       31.512783   0.000000
   67       31.814042   0.000000
   68       31.814587   0.000000
   69       32.445029   0.000000
   70       32.445170   0.000000
   71       32.782279   0.000000
   72       32.782958   0.000000
   73       34.090268   0.000000
   74       34.090592   0.000000
   75       35.006221   0.000000
   76       35.006318   0.000000
   77       35.625666   0.000000
   78       35.625967   0.000000
   79       36.333085   0.000000
   80       36.333440   0.000000
   81       36.372422   0.000000
   82       36.372552   0.000000
   83       36.659976   0.000000
   84       36.660081   0.000000
   85       39.355932   0.000000
   86       39.356113   0.000000
   87       39.369752   0.000000
   88       39.370350   0.000000
   89       39.756607   0.000000
   90       39.757085   0.000000
   91       40.756215   0.000000
   92       40.756286   0.000000
   93       40.903627   0.000000
   94       40.903774   0.000000
   95       41.851946   0.000000
   96       41.852193   0.000000
   97       42.702798   0.000000
   98       42.702894   0.000000
   99       42.805598   0.000000
  100       42.806531   0.000000
  101       43.489453   0.000000
  102       43.489756   0.000000
  103       44.058005   0.000000
  104       44.058568   0.000000
  105       44.179118   0.000000
  106       44.179672   0.000000
  107       45.461939   0.000000
  108       45.462362   0.000000
  109       45.733404   0.000000
  110       45.733554   0.000000
  111       45.749970   0.000000
  112       45.750681   0.000000
  113       47.132495   0.000000
  114       47.132603   0.000000
  115       50.252783   0.000000
  116       50.253196   0.000000
  117       50.587761   0.000000
  118       50.587822   0.000000
  119       50.791129   0.000000
  120       50.791232   0.000000
  121       51.071970   0.000000
  122       51.072183   0.000000
  123       51.253027   0.000000
  124       51.253304   0.000000
  125       51.533960   0.000000
  126       51.534050   0.000000
  127       51.783572   0.000000
  128       51.784046   0.000000
 
 -0.1428571E+00 -0.1343080E-17 -0.1387779E-16  0.2915452E-02
    1      -30.449285   1.000000
    2      -30.449192   1.000000
    3      -30.447100   1.000000
    4      -30.447093   1.000000
    5      -23.789333   1.000000
    6      -23.789242   1.000000
    7      -23.788342   1.000000
    8      -23.787881   1.000000
    9      -23.786763   1.000000
   10      -23.786311   1.000000
   11      -20.188090   1.000000
   12      -20.187575   1.000000
   13       -6.983553   1.000000
   14       -6.982884   1.000000
   15        2.399827   1.000000
   16        2.400073   1.000000
   17        3.841955   1.000000
   18        3.842466   1.000000
   19        5.324651   0.000000
   20        5.324804   0.000000
   21        9.886813   0.000000
   22        9.887014   0.000000
   23       11.042040   0.000000
   24       11.042073   0.000000
   25       11.346742   0.000000
   26       11.347315   0.000000
   27       12.295074   0.000000
   28       12.295776   0.000000
   29       12.573935   0.000000
   30       12.575220   0.000000
   31       12.730229   0.000000
   32       12.730380   0.000000
   33       13.438553   0.000000
   34       13.438745   0.000000
   35       15.596210   0.000000
   36       15.597700   0.000000
   37       15.736957   0.000000
   38       15.737182   0.000000
   39       17.649586   0.000000
   40       17.649886   0.000000
   41       20.066571   0.000000
   42       20.067062   0.000000
   43       20.156597   0.000000
   44       20.156760   0.000000
   45       20.467923   0.000000
   46       20.468952   0.000000
   47       22.081119   0.000000
   48       22.081616   0.000000
   49       25.344175   0.000000
   50       25.344572   0.000000
   51       25.776846   0.000000
   52       25.776974   0.000000
   53       26.070919   0.000000
   54       26.071161   0.000000
   55       27.252060   0.000000
   56       27.253017   0.000000
   57       28.093358   0.000000
   58       28.093429   0.000000
   59       28.918265   0.000000
   60       28.918474   0.000000
   61       30.073204   0.000000
   62       30.073436   0.000000
   63       30.121363   0.000000
   64       30.122262   0.000000
   65       30.821312   0.000000
   66       30.821725   0.000000
   67       30.884067   0.000000
   68       30.884213   0.000000
   69       32.813172   0.000000
   70       32.813370   0.000000
   71       35.213360   0.000000
   72       35.213851   0.000000
   73       35.802222   0.000000
   74       35.802540   0.000000
   75       36.659692   0.000000
   76       36.660068   0.000000
   77       36.697807   0.000000
   78       36.697948   0.000000
   79       36.973004   0.000000
   80       36.973545   0.000000
   81       38.902636   0.000000
   82       38.903166   0.000000
   83       39.210107   0.000000
   84       39.210294   0.000000
   85       39.407278   0.000000
   86       39.407514   0.000000
   87       39.888904   0.000000
   88       39.888947   0.000000
   89       40.192366   0.000000
   90       40.192766   0.000000
   91       40.501541   0.000000
   92       40.502001   0.000000
   93       40.728942   0.000000
   94       40.729050   0.000000
   95       41.094174   0.000000
   96       41.094729   0.000000
   97       41.478829   0.000000
   98       41.479118   0.000000
   99       42.803928   0.000000
  100       42.804036   0.000000
  101       43.171314   0.000000
  102       43.171731   0.000000
  103       43.400871   0.000000
  104       43.401710   0.000000
  105       44.046574   0.000000
  106       44.046790   0.000000
  107       44.710498   0.000000
  108       44.710637   0.000000
  109       44.778946   0.000000
  110       44.779568   0.000000
  111       44.862626   0.000000
  112       44.863226   0.000000
  113       46.213467   0.000000
  114       46.213539   0.000000
  115       46.543423   0.000000
  116       46.543738   0.000000
  117       47.030470   0.000000
  118       47.030588   0.000000
  119       47.944158   0.000000
  120       47.944385   0.000000
  121       48.868746   0.000000