Xe_FCC                                  
   1.00000000000000     
     4.432200    0.000000    0.000000
     2.216100    3.838398   -0.000000
     2.216100    1.279466    3.618876
   Xe
     1
Direct
  0.000000  0.000000  0.000000
 
   56   56   56
 -.79449502612E+02 -.74746586307E+02 -.61390053209E+02 -.41464322695E+02 -.17933021670E+02
 0.59694769399E+01 0.27338485504E+02 0.44046294248E+02 0.54959656834E+02 0.59939360198E+02
 0.59651866086E+02 0.55305668452E+02 0.48353505766E+02 0.40247817960E+02 0.32249086946E+02
 0.25263083399E+02 0.19538460125E+02 0.14968573391E+02 0.11395036332E+02 0.86350890943E+01
 0.65276276451E+01 0.49320835058E+01 0.37391267310E+01 0.28591980302E+01 0.22252224430E+01
 0.17830690772E+01 0.14947936903E+01 0.13319967166E+01 0.12798782118E+01 0.13319967163E+01
 0.14947936897E+01 0.17830690763E+01 0.22252224418E+01 0.28591980287E+01 0.37391267293E+01
 0.49320835040E+01 0.65276276434E+01 0.86350890928E+01 0.11395036331E+02 0.14968573391E+02
 0.19538460124E+02 0.25263083399E+02 0.32249086946E+02 0.40247817961E+02 0.48353505768E+02
 0.55305668454E+02 0.59651866089E+02 0.59939360201E+02 0.54959656837E+02 0.44046294251E+02
 0.27338485504E+02 0.59694769393E+01 -.17933021672E+02 -.41464322697E+02 -.61390053212E+02
 -.74746586308E+02 -.74746586314E+02 -.65719860391E+02 -.49100264776E+02 -.27436752802E+02
 -.38519787301E+01 0.18572996348E+02 0.37326806398E+02 0.50797551812E+02 0.58382146605E+02
 0.60373822483E+02 0.57742385333E+02 0.51834376908E+02 0.44118245444E+02 0.35944003144E+02
 0.28419057394E+02 0.22110599383E+02 0.17014635677E+02 0.12993125335E+02 0.98679907526E+01
 0.74689458053E+01 0.56436706578E+01 0.42701678180E+01 0.32489884223E+01 0.25039004404E+01
 0.19742896833E+01 0.16152119271E+01 0.13934739407E+01 0.12878863424E+01 0.12879191560E+01
 0.13934199231E+01 0.16152226269E+01 0.19742076533E+01 0.25038746747E+01 0.32488463832E+01
 0.42700498701E+01 0.56433747222E+01 0.74685976050E+01 0.98673427228E+01 0.12992288171E+02
 0.17013295940E+02 0.22108856778E+02 0.28416516466E+02 0.35940763712E+02 0.44113900924E+02
 0.51829373364E+02 0.57736480681E+02 0.60367923808E+02 0.58375988990E+02 0.50792446752E+02
 0.37322258276E+02 0.18569835995E+02 -.38537600438E+01 -.27438418108E+02 -.49100738245E+02
 -.65720177054E+02 -.74746722064E+02 -.61390053233E+02 -.49100264792E+02 -.30793383216E+02
 -.92313016000E+01 0.12576620203E+02 0.31930137440E+02 0.46858802251E+02 0.56329047981E+02
 0.60235762391E+02 0.59235762152E+02 0.54488365791E+02 0.47384536251E+02 0.39304345245E+02
 0.31446273033E+02 0.24637272120E+02 0.19064434458E+02 0.14616525553E+02 0.11136254921E+02
 0.84463959150E+01 0.63903214136E+01 0.48325272768E+01 0.36667652054E+01 0.28065196415E+01
 0.21862737595E+01 0.17536207141E+01 0.14713110014E+01 0.13119303504E+01 0.12608046480E+01
 0.13119113476E+01 0.14712693976E+01 0.17535563718E+01 0.21861702372E+01 0.28063660554E+01
 0.36665159332E+01 0.48321423200E+01 0.63897044053E+01 0.84454597683E+01 0.11134831576E+02
 0.14614468431E+02 0.19061485347E+02 0.24633219374E+02 0.31440729002E+02 0.39297045857E+02
 0.47375422170E+02 0.54477835838E+02 0.59224065252E+02 0.60223985785E+02 0.56317658055E+02
 0.46849168686E+02 0.31922214127E+02 0.12571088488E+02 -.92348099989E+01 -.30795392591E+02
 -.49101052823E+02 -.61390247377E+02 -.65720177071E+02 -.41464322743E+02 -.27436752845E+02
 -.92313016281E+01 0.10445693931E+02 0.28928527394E+02 0.44057269798E+02 0.54465697857E+02
 0.59675653583E+02 0.60001838497E+02 0.56351786130E+02 0.49963430684E+02 0.42172154961E+02
 0.34198632511E+02 0.27017828297E+02 0.21039073979E+02 0.16211126863E+02 0.12400135759E+02
 0.94335629334E+01 0.71526301686E+01 0.54136574638E+01 0.41033094570E+01 0.31275204151E+01
 0.24149714458E+01 0.19078238194E+01 0.15638208361E+01 0.13511146951E+01 0.12498558807E+01
 0.12498374390E+01 0.13510809545E+01 0.15637444867E+01 0.19077179131E+01 0.24147907973E+01
 0.31272522240E+01 0.41028652039E+01 0.54129725826E+01 0.71515429199E+01 0.94319341921E+01
 0.12397702521E+02 0.16207658334E+02 0.21034168575E+02 0.27011167710E+02 0.34189663121E+02
 0.42160681001E+02 0.49949255910E+02 0.56335634070E+02 0.59984543894E+02 0.59658696735E+02
 0.54450029154E+02 0.44044204834E+02 0.28918443798E+02 0.10438881369E+02 -.92358085632E+01
 -.27439209062E+02 -.41465263644E+02 -.49101052848E+02 -.49100738286E+02 -.17933021752E+02
 -.38519788135E+01 0.12576620127E+02 0.28928527341E+02 0.43044803019E+02 0.53369119911E+02
 0.59126451810E+02 0.60306991139E+02 0.57534646092E+02 0.51841673826E+02 0.44447788698E+02
 0.36541154519E+02 0.29145893995E+02 0.22854950207E+02 0.17714604435E+02 0.13614260842E+02
 0.10398094935E+02 0.79076576244E+01 0.59973012135E+01 0.45474260584E+01 0.34589824944E+01
 0.26553230977E+01 0.20740889051E+01 0.16689215919E+01 0.14034412223E+01 0.12541210123E+01
 0.12056036640E+01 0.12540928633E+01 0.14033825316E+01 0.16688199445E+01 0.20739286820E+01
 0.26550617252E+01 0.34585666410E+01 0.45467511457E+01 0.59962448521E+01 0.79060183514E+01
 0.10395655678E+02 0.13610690836E+02 0.17709575587E+02 0.22847961730E+02 0.29136433914E+02
 0.36528684406E+02 0.44432079053E+02 0.51822884986E+02 0.57513726498E+02 0.60285130280E+02
 0.59105176865E+02 0.53350268911E+02 0.43028740683E+02 0.28916861691E+02 0.12568638214E+02
 -.38569050694E+01 -.17935205635E+02 -.27439209093E+02 -.30795392646E+02 -.27438418180E+02
 0.59694768021E+01 0.18572996195E+02 0.31930137282E+02 0.44057269655E+02 0.53369119818E+02
 0.58904742230E+02 0.60389858635E+02 0.58171933613E+02 0.53051884509E+02 0.46082888737E+02
 0.38370514975E+02 0.30918392238E+02 0.24429688643E+02 0.19060994312E+02 0.14729748466E+02
 0.11303621515E+02 0.86292900220E+01 0.65645683943E+01 0.49856121250E+01 0.37915147716E+01
 0.29005463622E+01 0.22480791991E+01 0.17831556907E+01 0.14669509071E+01 0.12713329211E+01
 0.11779779759E+01 0.11779993143E+01 0.12712620898E+01 0.14669127388E+01 0.17829976327E+01
 0.22479057534E+01 0.29001609996E+01 0.37909757133E+01 0.49846392825E+01 0.65631448437E+01
 0.86270102246E+01 0.11300372731E+02 0.14724951787E+02 0.19054436517E+02 0.24420578357E+02
 0.30906375238E+02 0.38354634727E+02 0.46063431933E+02 0.53028916051E+02 0.58147035295E+02
 0.60364440041E+02 0.58880614383E+02 0.53348367831E+02 0.44040163134E+02 0.31917685470E+02
 0.18564872573E+02 0.59645142821E+01 -.38569051057E+01 -.92358086318E+01 -.92348100952E+01
 -.38537601626E+01 0.27338485273E+02 0.37326806135E+02 0.46858801969E+02 0.54465697584E+02
 0.59126451587E+02 0.60389858508E+02 0.58370776405E+02 0.53640740785E+02 0.47062963931E+02
 0.39619675961E+02 0.32247933188E+02 0.25687354660E+02 0.20186531469E+02 0.15697128963E+02
 0.12112101822E+02 0.92896193720E+01 0.70945705773E+01 0.54029727337E+01 0.41140489764E+01
 0.31430446684E+01 0.24241089714E+01 0.19027895183E+01 0.15385741554E+01 0.12993753258E+01
 0.11646342485E+01 0.11207851435E+01 0.11646237073E+01 0.12993370410E+01 0.15385146380E+01
 0.19026476370E+01 0.24238814587E+01 0.31425977588E+01 0.41133405796E+01 0.54017554977E+01
 0.70927357279E+01 0.92867633711E+01 0.12108034353E+02 0.15691234272E+02 0.20178509435E+02
 0.25676344538E+02 0.32233605710E+02 0.39601072721E+02 0.47040439539E+02 0.53614757264E+02
 0.58343081772E+02 0.60362301969E+02 0.59100243276E+02 0.54443586701E+02 0.46840953963E+02
 0.37313425569E+02 0.27329690090E+02 0.18564872529E+02 0.12568638130E+02 0.10438881246E+02
 0.12571088327E+02 0.18569835799E+02 0.44046293878E+02 0.50797551394E+02 0.56329047537E+02
 0.59675653150E+02 0.60306990765E+02 0.58171933346E+02 0.53640740653E+02 0.47389059950E+02
 0.40252037502E+02 0.33070773176E+02 0.26564241991E+02 0.21035069935E+02 0.16470035738E+02
 0.12786735666E+02 0.98604893457E+01 0.75658435846E+01 0.57836974000E+01 0.44146639095E+01
 0.33743741029E+01 0.25957524445E+01 0.20234958763E+01 0.16147137201E+01 0.13358132059E+01
 0.11628756576E+01 0.10802388190E+01 0.10801976352E+01 0.11629261173E+01 0.13357642870E+01
 0.16147236351E+01 0.20233389097E+01 0.25955563801E+01 0.33738435864E+01 0.44138717467E+01
 0.57822335018E+01 0.75637050928E+01 0.98571009583E+01 0.12782015158E+02 0.16463199759E+02
 0.21025917974E+02 0.26551700538E+02 0.33054673184E+02 0.40231318352E+02 0.47364490319E+02
 0.53612891323E+02 0.58142225201E+02 0.60278452909E+02 0.59648751330E+02 0.56306372572E+02
 0.50780010072E+02 0.44033031653E+02 0.37313425514E+02 0.31917685363E+02 0.28916861533E+02
 0.28918443587E+02 0.31922213863E+02 0.37322257958E+02 0.54959656282E+02 0.58382146002E+02
 0.60235761769E+02 0.60001837902E+02 0.57534645578E+02 0.53051884122E+02 0.47062963693E+02
 0.40252037403E+02 0.33349100719E+02 0.27014577135E+02 0.21562861855E+02 0.17009206994E+02
 0.13294978890E+02 0.10315417617E+02 0.79580054844E+01 0.61117378479E+01 0.46816026626E+01
 0.35852580450E+01 0.27566346073E+01 0.21399762150E+01 0.16920162822E+01 0.13772558339E+01
 0.11705525717E+01 0.10531770418E+01 0.10154754742E+01 0.10532049999E+01 0.11706163768E+01
 0.13773043442E+01 0.16920672514E+01 0.21399103084E+01 0.27564612448E+01 0.35847553738E+01
 0.46807480390E+01 0.61101634231E+01 0.79556423778E+01 0.10311699849E+02 0.13289774036E+02
 0.17001729571E+02 0.21552926712E+02 0.27001111302E+02 0.33331925293E+02 0.40230372863E+02
 0.47037179634E+02 0.53023781415E+02 0.57504481823E+02 0.59973463528E+02 0.60209374530E+02
 0.58359568184E+02 0.54942356158E+02 0.50780010003E+02 0.46840953828E+02 0.44040162933E+02
 0.43028740412E+02 0.44044204491E+02 0.46849168270E+02 0.50792446264E+02 0.59939359448E+02
 0.60373821696E+02 0.59235761369E+02 0.56351785407E+02 0.51841673216E+02 0.46082888281E+02
 0.39619675672E+02 0.33070773034E+02 0.27014577094E+02 0.21742025064E+02 0.17286232692E+02
 0.13610972403E+02 0.10632257585E+02 0.82527458135E+01 0.63725971817E+01 0.49032508867E+01
 0.37670365022E+01 0.28997670391E+01 0.22473797038E+01 0.17662278831E+01 0.14209352550E+01
 0.11845185281E+01 0.10373742823E+01 0.96685375318E+00 0.96693713351E+00 0.10374203629E+01
 0.11847156827E+01 0.14210541272E+01 0.17664387712E+01 0.22474041850E+01 0.28997433470E+01
 0.37665987007E+01 0.49024869414E+01 0.63710069711E+01 0.82503604933E+01 0.10628408970E+02
 0.13605609625E+02 0.17278476065E+02 0.21731754984E+02 0.27000815485E+02 0.33053202678E+02
 0.39598209109E+02 0.46057031763E+02 0.51814460204E+02 0.56322347264E+02 0.59208212611E+02
 0.60349305091E+02 0.59918409647E+02 0.58359568101E+02 0.56306372408E+02 0.54443586451E+02
 0.53348367492E+02 0.53350268480E+02 0.54450028633E+02 0.56317657447E+02 0.58375988301E+02
 0.59651865160E+02 0.57742384401E+02 0.54488364903E+02 0.49963429896E+02 0.44447788060E+02
 0.38370514517E+02 0.32247932912E+02 0.26564241867E+02 0.21562861833E+02 0.17286232709E+02
 0.13718204701E+02 0.10794909654E+02 0.84357733402E+01 0.65539114358E+01 0.50696670944E+01
 0.39114333969E+01 0.30189585721E+01 0.23404667315E+01 0.18336988803E+01 0.14633697594E+01
 0.12023873986E+01 0.10297815568E+01 0.93183817433E+00 0.89998222090E+00 0.93194720423E+00
 0.10299804387E+01 0.12026815888E+01 0.14636957411E+01 0.18340581760E+01 0.23407313508E+01
 0.30191066608E+01 0.39112403490E+01 0.50690657910E+01 0.65525458272E+01 0.84335032339E+01
 0.10791248314E+02 0.13712918828E+02 0.17278739953E+02 0.21552671745E+02 0.26551127725E+02
 0.32230610775E+02 0.38350556003E+02 0.44422881363E+02 0.49938099053E+02 0.54461817904E+02
 0.57716562618E+02 0.59629228448E+02 0.60349304996E+02 0.60209374339E+02 0.59648751037E+02
 0.59100242874E+02 0.58880613869E+02 0.59105176242E+02 0.59658696010E+02 0.60223984972E+02
 0.60367922924E+02 0.55305667410E+02 0.51834375903E+02 0.47384535335E+02 0.42172154186E+02
 0.36541153925E+02 0.30918391842E+02 0.25687354453E+02 0.21035069881E+02 0.17009207036E+02
 0.13610972481E+02 0.10794909712E+02 0.84978233889E+01 0.66468977653E+01 0.51728717131E+01
 0.40118049850E+01 0.31084893926E+01 0.24148473896E+01 0.18905642876E+01 0.15017303772E+01
 0.12212738357E+01 0.10281446577E+01 0.90738580858E+00 0.84935629172E+00 0.84943037109E+00
 0.90761259447E+00 0.10285060166E+01 0.12217573092E+01 0.15022984835E+01 0.18911735640E+01
 0.24154239181E+01 0.31089320995E+01 0.40119804684E+01 0.51725876168E+01 0.66459601291E+01
 0.84958944238E+01 0.10791771947E+02 0.13606044734E+02 0.17002510726E+02 0.21025340302E+02
 0.25675732866E+02 0.30902046924E+02 0.36523446508E+02 0.42150132969E+02 0.47361107539E+02
 0.51811517799E+02 0.55283207733E+02 0.57716562516E+02 0.59208212402E+02 0.59973463205E+02
 0.60278452460E+02 0.60362301391E+02 0.60364439336E+02 0.60285129460E+02 0.59984542977E+02
 0.59224064262E+02 0.57736479645E+02 0.48353504692E+02 0.44118244451E+02 0.39304344382E+02
 0.34198631819E+02 0.29145893502E+02 0.24429688355E+02 0.20186531367E+02 0.16470035780E+02
 0.13294979020E+02 0.10632257742E+02 0.84357734722E+01 0.66468978375E+01 0.52078619373E+01
 0.40632440549E+01 0.31640735179E+01 0.24666788302E+01 0.19337229867E+01 0.15331751560E+01
 0.12388737542E+01 0.10300004048E+01 0.89117933983E+00 0.81192860630E+00 0.78621488780E+00
 0.81213548241E+00 0.89155934275E+00 0.10305999118E+01 0.12395856524E+01 0.15340868689E+01
 0.19346335963E+01 0.24677057708E+01 0.31648841403E+01 0.40639814254E+01 0.52080017628E+01
 0.66466445178E+01 0.84343278296E+01 0.10630033979E+02 0.13290634834E+02 0.16464713569E+02
 0.20177681100E+02 0.24420077284E+02 0.29131743576E+02 0.34182936580E+02 0.39286873887E+02
 0.44097665348E+02 0.48334370877E+02 0.51811517694E+02 0.54461817688E+02 0.56322346927E+02
 0.57504481353E+02 0.58142224592E+02 0.58343081023E+02 0.58147034420E+02 0.57513725517E+02
 0.56335633011E+02 0.54477834734E+02 0.51829372253E+02 0.40247816939E+02 0.35944002239E+02
 0.31446272284E+02 0.27017827733E+02 0.22854949845E+02 0.19060994149E+02 0.15697128973E+02
 0.12786735805E+02 0.10315417830E+02 0.82527460430E+01 0.65539116342E+01 0.51728718496E+01
 0.40632441192E+01 0.31829223740E+01 0.24932911499E+01 0.19606755465E+01 0.15554750283E+01
 0.12530873778E+01 0.10333377470E+01 0.88103856266E+00 0.78517676778E+00 0.73900308858E+00
 0.73909914954E+00 0.78558115260E+00 0.88162673785E+00 0.10342228000E+01 0.12541229899E+01
 0.15567683381E+01 0.19620313980E+01 0.24948030423E+01 0.31843013620E+01 0.40645777161E+01
 0.51737218492E+01 0.65544105012E+01 0.82521792588E+01 0.10314204967E+02 0.12783553056E+02
 0.15693206260E+02 0.19054149128E+02 0.22846728891E+02 0.27007923890E+02 0.31432031874E+02
 0.35931211491E+02 0.40232442555E+02 0.44097665245E+02 0.47361107326E+02 0.49938098719E+02
 0.51814459739E+02 0.53023780809E+02 0.53612890575E+02 0.53614756385E+02 0.53028915060E+02
 0.51822883913E+02 0.49949254790E+02 0.47375421041E+02 0.44113899827E+02 0.32249086042E+02
 0.28419056625E+02 0.24637271515E+02 0.21039073559E+02 0.17714604205E+02 0.14729748417E+02
 0.12112101926E+02 0.98604895585E+01 0.79580057543E+01 0.63725974572E+01 0.50696673334E+01
 0.40118051615E+01 0.31640736238E+01 0.24932911934E+01 0.19698350115E+01 0.15670500833E+01
 0.12622828645E+01 0.10365500265E+01 0.87513663899E+00 0.76704812985E+00 0.70505340572E+00
 0.68491048451E+00 0.70535552186E+00 0.76765296157E+00 0.87603742417E+00 0.10377453362E+01
 0.12637493685E+01 0.15687740177E+01 0.19717515471E+01 0.24953649253E+01 0.31661586341E+01
 0.40138383420E+01 0.50713731746E+01 0.63739827260E+01 0.79585100691E+01 0.98604488307E+01
 0.12110436131E+02 0.14727186032E+02 0.17710538073E+02 0.21032203063E+02 0.24631028646E+02
 0.28409382217E+02 0.32237474623E+02 0.35931211392E+02 0.39286873682E+02 0.42150132651E+02
 0.44422880922E+02 0.46057031192E+02 0.47037178930E+02 0.47364489489E+02 0.47040438598E+02
 0.46063430907E+02 0.44432077974E+02 0.42160679907E+02 0.39297044788E+02 0.35940762707E+02
 0.25263082647E+02 0.22110598767E+02 0.19064434000E+02 0.16211126573E+02 0.13614260721E+02
 0.11303621549E+02 0.92896195328E+01 0.75658438322E+01 0.61117381363E+01 0.49032511712E+01
 0.39114336421E+01 0.31084895772E+01 0.24666789490E+01 0.19606756078E+01 0.15670501041E+01
 0.12654629937E+01 0.10384578028E+01 0.87215302974E+00 0.75589287061E+00 0.68230062922E+00
 0.64668443479E+00 0.64687072354E+00 0.68282613561E+00 0.75679336792E+00 0.87339141747E+00
 0.10400706398E+01 0.12673926385E+01 0.15693279270E+01 0.19631878488E+01 0.24694478436E+01
 0.31113202872E+01 0.39143581639E+01 0.49058860619E+01 0.61142730622E+01 0.75675306180E+01
 0.92910251918E+01 0.11303722804E+02 0.13613211417E+02 0.16209664269E+02 0.19060335644E+02
 0.22105587923E+02 0.25258710585E+02 0.28409382123E+02 0.31432031680E+02 0.34182936282E+02
 0.36523446101E+02 0.38350555484E+02 0.39598208476E+02 0.40230372121E+02 0.40231317511E+02
 0.39601071798E+02 0.38354633749E+02 0.36528683404E+02 0.34189662131E+02 0.31440728059E+02
 0.28416515603E+02 0.19538459528E+02 0.17014635205E+02 0.14616525219E+02 0.12400135569E+02
 0.10398094885E+02 0.86292900974E+01 0.70945707527E+01 0.57836976408E+01 0.46816029299E+01
 0.37670367590E+01 0.30189587898E+01 0.24148475522E+01 0.19337230913E+01 0.15554750837E+01
 0.12622828860E+01 0.10384578070E+01 0.87125386854E+00 0.75059674332E+00 0.66925053055E+00
 0.62232925937E+00 0.60712703363E+00 0.62274139355E+00 0.67007102566E+00 0.75184210451E+00
 0.87290732615E+00 0.10405464899E+01 0.12647566664E+01 0.15583701692E+01 0.19369260153E+01
 0.24183788726E+01 0.30226020691E+01 0.37708858704E+01 0.46852129974E+01 0.57873872914E+01
 0.70975391677E+01 0.86320125954E+01 0.10400199040E+02 0.12400701268E+02 0.14617035049E+02
 0.17014005709E+02 0.19535614968E+02 0.22105587835E+02 0.24631028465E+02 0.27007923613E+02
 0.29131743203E+02 0.30902046459E+02 0.32230610221E+02 0.33053202040E+02 0.33331924579E+02
 0.33054672403E+02 0.32233604877E+02 0.30906374374E+02 0.29136433046E+02 0.27011166868E+02
 0.24633218588E+02 0.22108856075E+02 0.14968572932E+02 0.12993124980E+02 0.11136254679E+02
 0.94335628051E+01 0.79076576054E+01 0.65645684719E+01 0.54029728864E+01 0.44146641090E+01
 0.35852582598E+01 0.28997672400E+01 0.23404668967E+01 0.18905644060E+01 0.15331752275E+01
 0.12530874114E+01 0.10365500358E+01 0.87215302814E+00 0.75059674050E+00 0.66500065122E+00
 0.61048649879E+00 0.58407041070E+00 0.58430016141E+00 0.61119136789E+00 0.66617119178E+00
 0.75225635187E+00 0.87428578273E+00 0.10391854331E+01 0.12561711953E+01 0.15367374710E+01
 0.18945132386E+01 0.23448401377E+01 0.29043249420E+01 0.35901499501E+01 0.44193847468E+01
 0.54078942271E+01 0.65690258513E+01 0.79115952442E+01 0.94375051573E+01 0.11138789427E+02
 0.12994871660E+02 0.14970301688E+02 0.17014005630E+02 0.19060335477E+02 0.21032202805E+02
 0.22846728547E+02 0.24420076862E+02 0.25675732378E+02 0.26551127183E+02 0.27000814896E+02
 0.27001110672E+02 0.26551699871E+02 0.25676343841E+02 0.24420577645E+02 0.22847961022E+02
 0.21034167896E+02 0.19061484721E+02 0.17013295389E+02 0.11395035982E+02 0.98679904827E+01
 0.84463957297E+01 0.71526300682E+01 0.59973011938E+01 0.49856121759E+01 0.41140490812E+01
 0.33743742395E+01 0.27566347515E+01 0.22473798337E+01 0.18336989805E+01 0.15017304412E+01
 0.12388737845E+01 0.10333377527E+01 0.87513663166E+00 0.75589286066E+00 0.66925052417E+00
 0.61048649707E+00 0.57651398971E+00 0.56554893529E+00 0.57703687293E+00 0.61154278980E+00
 0.67083561310E+00 0.75803486490E+00 0.87780839244E+00 0.10365885778E+01 0.12426341033E+01
 0.15060297988E+01 0.18383996866E+01 0.22525855870E+01 0.27620357914E+01 0.33802338495E+01
 0.41197991868E+01 0.49915771967E+01 0.60032465025E+01 0.71578245929E+01 0.84516799769E+01
 0.98726809997E+01 0.11398346018E+02 0.12994871591E+02 0.14617034899E+02 0.16209664032E+02
 0.17710537753E+02 0.19054148738E+02 0.20177680660E+02 0.21025339831E+02 0.21552671258E+02
 0.21731754485E+02 0.21552926200E+02 0.21025917446E+02 0.20178508891E+02 0.19054435962E+02
 0.17709575037E+02 0.16207657807E+02 0.14614467949E+02 0.12992287749E+02 0.86350888223E+01
 0.74689455907E+01 0.63903212586E+01 0.54136573682E+01 0.45474260192E+01 0.37915147814E+01
 0.31430447150E+01 0.25957525117E+01 0.21399762850E+01 0.17662279407E+01 0.14633697950E+01
 0.12212738470E+01 0.10300003964E+01 0.88103854327E+00 0.76704810907E+00 0.68230061422E+00
 0.62232925294E+00 0.58407041119E+00 0.56554893807E+00 0.56584191364E+00 0.58494525791E+00
 0.62380082112E+00 0.68436651497E+00 0.76973576369E+00 0.88431451166E+00 0.10338962291E+01
 0.12257498457E+01 0.14684638995E+01 0.17717797506E+01 0.21461153139E+01 0.26021222647E+01
 0.31499262355E+01 0.37984361473E+01 0.45542879718E+01 0.54208448123E+01 0.63968145998E+01
 0.74750397995E+01 0.86411333092E+01 0.98726809443E+01 0.11138789300E+02 0.12400701057E+02
 0.13613211124E+02 0.14727185668E+02 0.15693205849E+02 0.16464713140E+02 0.17002510301E+02
 0.17278739546E+02 0.17278475675E+02 0.17001729188E+02 0.16463199370E+02 0.15691233870E+02
 0.14724951373E+02 0.13610690421E+02 0.12397702121E+02 0.11134831208E+02 0.98673423996E+01
 0.65276274278E+01 0.56436704785E+01 0.48325271365E+01 0.41033093556E+01 0.34589824302E+01
 0.29005463302E+01 0.24241089632E+01 0.20234958804E+01 0.16920162867E+01 0.14209352504E+01
 0.12023873804E+01 0.10281446271E+01 0.89117930275E+00 0.78517673221E+00 0.70505337882E+00
 0.64668442051E+00 0.60712703163E+00 0.58430016769E+00 0.57703688163E+00 0.58494526368E+00
 0.60841609186E+00 0.64863888739E+00 0.70765485415E+00 0.78847503733E+00 0.89512445080E+00
 0.10327539767E+01 0.12075649810E+01 0.14267746171E+01 0.16982913809E+01 0.20304263692E+01
 0.24312798266E+01 0.29082122606E+01 0.34669934131E+01 0.41110817702E+01 0.48405955086E+01
 0.56515013740E+01 0.65346154018E+01 0.74750397605E+01 0.84516798780E+01 0.94375049810E+01
 0.10400198779E+02 0.11303722466E+02 0.12110435740E+02 0.12783552646E+02 0.13290634437E+02
 0.13606044373E+02 0.13712918510E+02 0.13605609341E+02 0.13289773768E+02 0.12782014886E+02
 0.12108034066E+02 0.11300372428E+02 0.10395655369E+02 0.94319338902E+01 0.84454594870E+01
 0.74685973539E+01 0.49320833286E+01 0.42701676642E+01 0.36667650751E+01 0.31275203084E+01
 0.26553230136E+01 0.22480791346E+01 0.19027894677E+01 0.16147136761E+01 0.13772557894E+01
 0.11845184785E+01 0.10297815018E+01 0.90738575171E+00 0.81192855393E+00 0.73900304733E+00
 0.68491045888E+00 0.64687071439E+00 0.62274139794E+00 0.61119138026E+00 0.61154280385E+00
 0.62380083183E+00 0.64863889242E+00 0.68740867906E+00 0.74220347621E+00 0.81585540317E+00
 0.91202704950E+00 0.10351586137E+01 0.11905099119E+01 0.13839579631E+01 0.16218588299E+01
 0.19105916246E+01 0.22561859666E+01 0.26636328932E+01 0.31363459930E+01 0.36753451784E+01
 0.42786815248E+01 0.49406697284E+01 0.56515013526E+01 0.63968145337E+01 0.71578244588E+01
 0.79115950266E+01 0.86320122942E+01 0.92910248248E+01 0.98604484309E+01 0.10314204574E+02
 0.10630033626E+02 0.10791771652E+02 0.10791248076E+02 0.10628408773E+02 0.10311699668E+02
 0.98571007715E+01 0.92867631662E+01 0.86270100013E+01 0.79060181183E+01 0.71515426892E+01
 0.63897041876E+01 0.56433745242E+01 0.37391265874E+01 0.32489882919E+01 0.28065195237E+01
 0.24149713407E+01 0.20740888120E+01 0.17831556078E+01 0.15385740793E+01 0.13358131325E+01
 0.11705524979E+01 0.10373742073E+01 0.93183810052E+00 0.84935622410E+00 0.78621483219E+00
 0.73909911055E+00 0.70535550123E+00 0.68282613155E+00 0.67007103352E+00 0.66617120554E+00
 0.67083562718E+00 0.68436652563E+00 0.70765486011E+00 0.74220347827E+00 0.79008247251E+00
 0.85398309526E+00 0.93714866260E+00 0.10434372395E+01 0.11771861702E+01 0.13431853280E+01
 0.15463627280E+01 0.17915651987E+01 0.20830230835E+01 0.24239606294E+01 0.28159304639E+01
 0.32583870295E+01 0.37480609036E+01 0.42786815203E+01 0.48405954766E+01 0.54208447258E+01
 0.60032463388E+01 0.65690256001E+01 0.70975388374E+01 0.75675302357E+01 0.79585096744E+01
 0.82521788925E+01 0.84343275219E+01 0.84958941863E+01 0.84335030582E+01 0.82503603569E+01
 0.79556422539E+01 0.75637049601E+01 0.70927355761E+01 0.65631446740E+01 0.59962446730E+01
 0.54129724046E+01 0.48321421512E+01 0.42700497144E+01 0.28591979184E+01 0.25039003352E+01
 0.21862736598E+01 0.19078237247E+01 0.16689215018E+01 0.14669508204E+01 0.12993752407E+01
 0.11628755727E+01 0.10531769566E+01 0.96685366975E+00 0.89998214323E+00 0.84943030424E+00
 0.81213543079E+00 0.78558111836E+00 0.76765294384E+00 0.75679336304E+00 0.75184210732E+00
 0.75225635736E+00 0.75803486957E+00 0.76973576617E+00 0.78847503807E+00 0.81585540342E+00
 0.85398309575E+00 0.90536757177E+00 0.97296847499E+00 0.10600754122E+01 0.11703372476E+01
 0.13075451926E+01 0.14755409913E+01 0.16778240926E+01 0.19173021657E+01 0.21957571998E+01
 0.25135332881E+01 0.28690087887E+01 0.32583870390E+01 0.36753451773E+01 0.41110817314E+01
 0.45542878676E+01 0.49915770080E+01 0.54078939510E+01 0.57873869448E+01 0.61142726790E+01
 0.63739823484E+01 0.65544101677E+01 0.66466442525E+01 0.66459599362E+01 0.65525456927E+01
 0.63710068704E+01 0.61101633305E+01 0.57822333992E+01 0.54017553783E+01 0.49846391493E+01
 0.45467510069E+01 0.41028650678E+01 0.36665158051E+01 0.32488462646E+01 0.22252223625E+01
 0.19742896054E+01 0.17536206371E+01 0.15638207591E+01 0.14034411445E+01 0.12713328419E+01
 0.11646341672E+01 0.10802387358E+01 0.10154753909E+01 0.96693705340E+00 0.93194713175E+00
 0.90761253371E+00 0.89155929593E+00 0.88162670452E+00 0.87603740127E+00 0.87339140055E+00
 0.87290731104E+00 0.87428576701E+00 0.87780837613E+00 0.88431449679E+00 0.89512444010E+00
 0.91202704475E+00 0.93714866333E+00 0.97296847799E+00 0.10221804720E+01 0.10877304970E+01
 0.11726432199E+01 0.12800114760E+01 0.14127145505E+01 0.15732931237E+01 0.17635392420E+01
 0.19842911684E+01 0.22349916765E+01 0.25135333070E+01 0.28159304870E+01 0.31363459959E+01
 0.34669933671E+01 0.37984360272E+01 0.41197989794E+01 0.44193844569E+01 0.46852126488E+01
 0.49058856920E+01 0.50713728242E+01 0.51737215516E+01 0.52080015347E+01 0.51725874564E+01
 0.50690656812E+01 0.49024868584E+01 0.46807479610E+01 0.44138716603E+01 0.41133404815E+01
 0.37909756076E+01 0.34585665350E+01 0.31272521236E+01 0.28063659633E+01 0.25038745903E+01
 0.17830690259E+01 0.16152118761E+01 0.14713109484E+01 0.13511146389E+01 0.12541209517E+01
 0.11779779104E+01 0.11207850730E+01 0.10801975612E+01 0.10532049252E+01 0.10374202913E+01
 0.10299803740E+01 0.10285059609E+01 0.10305998648E+01 0.10342227585E+01 0.10377452958E+01
 0.10400705966E+01 0.10405464422E+01 0.10391853827E+01 0.10365885296E+01 0.10338961891E+01
 0.10327539502E+01 0.10351586028E+01 0.10434372419E+01 0.10600754220E+01 0.10877305059E+01
 0.11290577380E+01 0.11867303930E+01 0.12632228538E+01 0.13607772527E+01 0.14810996388E+01
 0.16252574021E+01 0.17933254566E+01 0.19842911912E+01 0.21957572371E+01 0.24239606625E+01
 0.26636328961E+01 0.29082122059E+01 0.31499261028E+01 0.33802336326E+01 0.35901496605E+01
 0.37708855357E+01 0.39143578214E+01 0.40138380280E+01 0.40645774568E+01 0.40639812308E+01
 0.40119803323E+01 0.39112402540E+01 0.37665986259E+01 0.35847553027E+01 0.33738435102E+01
 0.31425976771E+01 0.29001609170E+01 0.26550616474E+01 0.24147907280E+01 0.21861701768E+01
 0.19742075996E+01 0.14947936631E+01 0.13934739126E+01 0.13119303189E+01 0.12498558436E+01
 0.12056036200E+01 0.11779992627E+01 0.11646236486E+01 0.11629260536E+01 0.11706163114E+01
 0.11847156191E+01 0.12026815293E+01 0.12217572533E+01 0.12395855966E+01 0.12541229288E+01
 0.12637492971E+01 0.12673925548E+01 0.12647565729E+01 0.12561710994E+01 0.12426340155E+01
 0.12257497765E+01 0.12075649378E+01 0.11905098962E+01 0.11771861773E+01 0.11703372680E+01
 0.11726432420E+01 0.11867304067E+01 0.12149720968E+01 0.12595038276E+01 0.13219932038E+01
 0.14036238329E+01 0.15048273052E+01 0.16252574233E+01 0.17635392827E+01 0.19173022144E+01
 0.20830231198E+01 0.22561859650E+01 0.24312797636E+01 0.26021221260E+01 0.27620355771E+01
 0.29043246681E+01 0.30226017642E+01 0.31113199850E+01 0.31661583646E+01 0.31843011437E+01
 0.31648839777E+01 0.31089319839E+01 0.30191065763E+01 0.28997432774E+01 0.27564611783E+01
 0.25955563123E+01 0.24238813910E+01 0.22479056903E+01 0.20739286275E+01 0.19077178689E+01
 0.17535563367E+01 0.16152225979E+01 0.13319967055E+01 0.12878863298E+01 0.12608046311E+01
 0.12498374152E+01 0.12540928306E+01 0.12712620476E+01 0.12993369902E+01 0.13357642303E+01
 0.13773042848E+01 0.14210540678E+01 0.14636956815E+01 0.15022984200E+01 0.15340867949E+01
 0.15567682463E+01 0.15687739036E+01 0.15693277917E+01 0.15583700209E+01 0.15367373236E+01
 0.15060296690E+01 0.14684638019E+01 0.14267745599E+01 0.13839579461E+01 0.13431853428E+01
 0.13075452257E+01 0.12800115123E+01 0.12632228813E+01 0.12595038406E+01 0.12706682059E+01
 0.12980606366E+01 0.13423598051E+01 0.14036238478E+01 0.14810996728E+01 0.15732931725E+01
 0.16778241432E+01 0.17915652309E+01 0.19105916161E+01 0.20304263015E+01 0.21461151786E+01
 0.22525853890E+01 0.23448398949E+01 0.24183786114E+01 0.24694475923E+01 0.24953647062E+01
 0.24948028672E+01 0.24677056396E+01 0.24154238216E+01 0.23407312759E+01 0.22474041199E+01
 0.21399102463E+01 0.20233388490E+01 0.19026475804E+01 0.17829975841E+01 0.16688199065E+01
 0.15637444595E+01 0.14712693793E+01 0.13934199103E+01 0.12798782064E+01 0.12879191491E+01
 0.13119113358E+01 0.13510809347E+01 0.14033825017E+01 0.14669126983E+01 0.15385145885E+01
 0.16147235798E+01 0.16920671934E+01 0.17664387115E+01 0.18340581114E+01 0.18911734869E+01
 0.19346334969E+01 0.19620312675E+01 0.19717513826E+01 0.19631876561E+01 0.19369258093E+01
 0.18945130407E+01 0.18383995188E+01 0.17717796302E+01 0.16982913155E+01 0.16218588160E+01
 0.15463627525E+01 0.14755410360E+01 0.14127145974E+01 0.13607772886E+01 0.13219932232E+01
 0.12980606422E+01 0.12899601304E+01 0.12980606421E+01 0.13219932230E+01 0.13607772882E+01
 0.14127145969E+01 0.14755410355E+01 0.15463627518E+01 0.16218588152E+01 0.16982913145E+01
 0.17717796291E+01 0.18383995176E+01 0.18945130393E+01 0.19369258078E+01 0.19631876545E+01
 0.19717513809E+01 0.19620312657E+01 0.19346334951E+01 0.18911734852E+01 0.18340581097E+01
 0.17664387099E+01 0.16920671919E+01 0.16147235785E+01 0.15385145873E+01 0.14669126974E+01
 0.14033825010E+01 0.13510809342E+01 0.13119113354E+01 0.12879191489E+01 0.13319967058E+01
 0.13934199109E+01 0.14712693801E+01 0.15637444605E+01 0.16688199077E+01 0.17829975855E+01