   1   1   0   0
  0.6156630E+02  0.4432200E-09  0.4432200E-09  0.4432200E-09  0.1000000E-15
  1.000000000000000E-004
  CAR 
 Xe_FCC                                  
     36.02360544    -19.69983117  301     -4.07405082      1.00000000
    -19.700  0.0000E+00  0.0000E+00
    -19.514  0.0000E+00  0.0000E+00
    -19.328  0.0000E+00  0.0000E+00
    -19.143  0.0000E+00  0.0000E+00
    -18.957  0.0000E+00  0.0000E+00
    -18.771  0.0000E+00  0.0000E+00
    -18.585  0.0000E+00  0.0000E+00
    -18.400  0.0000E+00  0.0000E+00
    -18.214  0.0000E+00  0.0000E+00
    -18.028  0.0000E+00  0.0000E+00
    -17.842  0.0000E+00  0.0000E+00
    -17.657  0.0000E+00  0.0000E+00
    -17.471  0.0000E+00  0.0000E+00
    -17.285  0.2123E-04  0.3943E-05
    -17.099  0.5602E+00  0.1041E+00
    -16.914  0.7817E+01  0.1556E+01
    -16.728  0.2391E+01  0.2000E+01
    -16.542  0.6330E-06  0.2000E+01
    -16.356  0.0000E+00  0.2000E+01
    -16.171  0.0000E+00  0.2000E+01
    -15.985  0.0000E+00  0.2000E+01
    -15.799  0.0000E+00  0.2000E+01
    -15.613  0.0000E+00  0.2000E+01
    -15.428  0.0000E+00  0.2000E+01
    -15.242  0.0000E+00  0.2000E+01
    -15.056  0.0000E+00  0.2000E+01
    -14.870  0.0000E+00  0.2000E+01
    -14.685  0.0000E+00  0.2000E+01
    -14.499  0.0000E+00  0.2000E+01
    -14.313  0.0000E+00  0.2000E+01
    -14.127  0.0000E+00  0.2000E+01
    -13.942  0.0000E+00  0.2000E+01
    -13.756  0.0000E+00  0.2000E+01
    -13.570  0.0000E+00  0.2000E+01
    -13.385  0.0000E+00  0.2000E+01
    -13.199  0.0000E+00  0.2000E+01
    -13.013  0.0000E+00  0.2000E+01
    -12.827  0.0000E+00  0.2000E+01
    -12.642  0.0000E+00  0.2000E+01
    -12.456  0.0000E+00  0.2000E+01
    -12.270  0.0000E+00  0.2000E+01
    -12.084  0.0000E+00  0.2000E+01
    -11.899  0.0000E+00  0.2000E+01
    -11.713  0.0000E+00  0.2000E+01
    -11.527  0.0000E+00  0.2000E+01
    -11.341  0.0000E+00  0.2000E+01
    -11.156  0.0000E+00  0.2000E+01
    -10.970  0.0000E+00  0.2000E+01
    -10.784  0.0000E+00  0.2000E+01
    -10.598  0.0000E+00  0.2000E+01
    -10.413  0.0000E+00  0.2000E+01
    -10.227  0.0000E+00  0.2000E+01
    -10.041  0.0000E+00  0.2000E+01
     -9.855  0.0000E+00  0.2000E+01
     -9.670  0.0000E+00  0.2000E+01
     -9.484  0.0000E+00  0.2000E+01
     -9.298  0.0000E+00  0.2000E+01
     -9.112  0.0000E+00  0.2000E+01
     -8.927  0.0000E+00  0.2000E+01
     -8.741  0.0000E+00  0.2000E+01
     -8.555  0.0000E+00  0.2000E+01
     -8.369  0.0000E+00  0.2000E+01
     -8.184  0.0000E+00  0.2000E+01
     -7.998  0.0000E+00  0.2000E+01
     -7.812  0.0000E+00  0.2000E+01
     -7.626  0.0000E+00  0.2000E+01
     -7.441  0.0000E+00  0.2000E+01
     -7.255  0.0000E+00  0.2000E+01
     -7.069  0.0000E+00  0.2000E+01
     -6.883  0.0000E+00  0.2000E+01
     -6.698  0.0000E+00  0.2000E+01
     -6.512  0.0000E+00  0.2000E+01
     -6.326  0.0000E+00  0.2000E+01
     -6.140  0.2614E-08  0.2000E+01
     -5.955  0.5963E-01  0.2011E+01
     -5.769  0.1282E+01  0.2249E+01
     -5.583  0.5135E+01  0.3203E+01
     -5.397  0.3093E+01  0.3777E+01
     -5.212  0.2220E+01  0.4190E+01
     -5.026  0.3005E+01  0.4748E+01
     -4.840  0.5938E+01  0.5851E+01
     -4.655  0.7035E+01  0.7158E+01
     -4.469  0.4065E+01  0.7913E+01
     -4.283  0.4698E+00  0.8000E+01
     -4.097  0.9897E-06  0.8000E+01
     -3.912  0.0000E+00  0.8000E+01
     -3.726  0.0000E+00  0.8000E+01
     -3.540  0.0000E+00  0.8000E+01
     -3.354  0.0000E+00  0.8000E+01
     -3.169  0.0000E+00  0.8000E+01
     -2.983  0.0000E+00  0.8000E+01
     -2.797  0.0000E+00  0.8000E+01
     -2.611  0.0000E+00  0.8000E+01
     -2.426  0.0000E+00  0.8000E+01
     -2.240  0.0000E+00  0.8000E+01
     -2.054  0.0000E+00  0.8000E+01
     -1.868  0.0000E+00  0.8000E+01
     -1.683  0.0000E+00  0.8000E+01
     -1.497  0.0000E+00  0.8000E+01
     -1.311  0.0000E+00  0.8000E+01
     -1.125  0.0000E+00  0.8000E+01
     -0.940  0.0000E+00  0.8000E+01
     -0.754  0.0000E+00  0.8000E+01
     -0.568  0.0000E+00  0.8000E+01
     -0.382  0.0000E+00  0.8000E+01
     -0.197  0.0000E+00  0.8000E+01
     -0.011  0.0000E+00  0.8000E+01
      0.175  0.0000E+00  0.8000E+01
      0.361  0.0000E+00  0.8000E+01
      0.546  0.0000E+00  0.8000E+01
      0.732  0.0000E+00  0.8000E+01
      0.918  0.0000E+00  0.8000E+01
      1.104  0.0000E+00  0.8000E+01
      1.289  0.0000E+00  0.8000E+01
      1.475  0.0000E+00  0.8000E+01
      1.661  0.0000E+00  0.8000E+01
      1.847  0.0000E+00  0.8000E+01
      2.032  0.0000E+00  0.8000E+01
      2.218  0.2558E-11  0.8000E+01
      2.404  0.5665E-02  0.8001E+01
      2.590  0.4441E-01  0.8009E+01
      2.775  0.1318E-05  0.8009E+01
      2.961  0.2416E-05  0.8009E+01
      3.147  0.3244E+00  0.8070E+01
      3.333  0.2069E+00  0.8108E+01
      3.518  0.2036E+00  0.8146E+01
      3.704  0.1164E+00  0.8167E+01
      3.890  0.5115E-01  0.8177E+01
      4.076  0.2504E+01  0.8642E+01
      4.261  0.1623E+01  0.8944E+01
      4.447  0.3399E+00  0.9007E+01
      4.633  0.2245E+01  0.9424E+01
      4.818  0.2096E+01  0.9813E+01
      5.004  0.2269E+01  0.1023E+02
      5.190  0.3931E+00  0.1031E+02
      5.376  0.6024E+00  0.1042E+02
      5.561  0.2294E+01  0.1085E+02
      5.747  0.3239E+01  0.1145E+02
      5.933  0.1404E+01  0.1171E+02
      6.119  0.1773E+01  0.1204E+02
      6.304  0.4504E-02  0.1204E+02
      6.490  0.2388E+01  0.1248E+02
      6.676  0.2188E+01  0.1289E+02
      6.862  0.1481E+01  0.1316E+02
      7.047  0.2014E+01  0.1354E+02
      7.233  0.1834E+01  0.1388E+02
      7.419  0.3559E+01  0.1454E+02
      7.605  0.6636E+00  0.1466E+02
      7.790  0.2518E+01  0.1513E+02
      7.976  0.1380E+01  0.1539E+02
      8.162  0.9829E+00  0.1557E+02
      8.348  0.1327E+01  0.1582E+02
      8.533  0.9796E-01  0.1583E+02
      8.719  0.3218E+00  0.1589E+02
      8.905  0.1954E+01  0.1626E+02
      9.091  0.1181E+01  0.1648E+02
      9.276  0.2412E+01  0.1692E+02
      9.462  0.5889E+00  0.1703E+02
      9.648  0.1424E+01  0.1730E+02
      9.834  0.1228E+01  0.1753E+02
     10.019  0.2040E+01  0.1790E+02
     10.205  0.1964E+01  0.1827E+02
     10.391  0.1745E+01  0.1859E+02
     10.577  0.6130E+00  0.1871E+02
     10.762  0.1168E-04  0.1871E+02
     10.948  0.3350E-02  0.1871E+02
     11.134  0.2241E+01  0.1912E+02
     11.320  0.1616E+01  0.1942E+02
     11.505  0.4711E+01  0.2030E+02
     11.691  0.2478E+01  0.2076E+02
     11.877  0.2143E+01  0.2116E+02
     12.063  0.2103E+01  0.2155E+02
     12.248  0.1799E+01  0.2188E+02
     12.434  0.3692E+01  0.2257E+02
     12.620  0.8031E+00  0.2272E+02
     12.806  0.4461E+00  0.2280E+02
     12.991  0.1303E+01  0.2304E+02
     13.177  0.1671E+01  0.2335E+02
     13.363  0.2733E+01  0.2386E+02
     13.548  0.4426E+00  0.2394E+02
     13.734  0.1665E+01  0.2425E+02
     13.920  0.2163E+01  0.2465E+02
     14.106  0.1991E+01  0.2502E+02
     14.291  0.4082E+00  0.2510E+02
     14.477  0.1734E+01  0.2542E+02
     14.663  0.1328E+00  0.2545E+02
     14.849  0.4742E+01  0.2633E+02
     15.034  0.2836E+01  0.2685E+02
     15.220  0.1870E+01  0.2720E+02
     15.406  0.3434E+01  0.2784E+02
     15.592  0.1760E+01  0.2817E+02
     15.777  0.3282E+01  0.2877E+02
     15.963  0.3399E+01  0.2941E+02
     16.149  0.2142E+01  0.2980E+02
     16.335  0.1578E+01  0.3010E+02
     16.520  0.1388E+01  0.3036E+02
     16.706  0.3544E+01  0.3101E+02
     16.892  0.3201E+00  0.3107E+02
     17.078  0.4438E+01  0.3190E+02
     17.263  0.2014E+01  0.3227E+02
     17.449  0.2772E+01  0.3279E+02
     17.635  0.9304E+00  0.3296E+02
     17.821  0.1721E+01  0.3328E+02
     18.006  0.1474E+01  0.3355E+02
     18.192  0.3392E+01  0.3418E+02
     18.378  0.3789E+01  0.3489E+02
     18.564  0.5870E+00  0.3500E+02
     18.749  0.3264E+01  0.3560E+02
     18.935  0.4170E+01  0.3638E+02
     19.121  0.1364E+01  0.3663E+02
     19.307  0.5047E+01  0.3757E+02
     19.492  0.3487E+01  0.3821E+02
     19.678  0.3506E+01  0.3887E+02
     19.864  0.2907E+01  0.3941E+02
     20.050  0.1610E+01  0.3970E+02
     20.235  0.1646E+01  0.4001E+02
     20.421  0.3946E+00  0.4008E+02
     20.607  0.2533E+01  0.4055E+02
     20.793  0.1058E+01  0.4075E+02
     20.978  0.4027E+01  0.4150E+02
     21.164  0.3153E+01  0.4208E+02
     21.350  0.2875E+01  0.4262E+02
     21.536  0.3954E+01  0.4335E+02
     21.721  0.2790E+01  0.4387E+02
     21.907  0.2422E+01  0.4432E+02
     22.093  0.4331E+01  0.4513E+02
     22.278  0.1001E+01  0.4531E+02
     22.464  0.3452E+01  0.4595E+02
     22.650  0.4050E+01  0.4671E+02
     22.836  0.4454E+01  0.4753E+02
     23.021  0.5645E+00  0.4764E+02
     23.207  0.9538E+00  0.4781E+02
     23.393  0.1551E+01  0.4810E+02
     23.579  0.5255E+00  0.4820E+02
     23.764  0.2117E+01  0.4859E+02
     23.950  0.2153E+01  0.4899E+02
     24.136  0.4332E+01  0.4980E+02
     24.322  0.9836E+00  0.4998E+02
     24.507  0.7219E+01  0.5132E+02
     24.693  0.5650E+00  0.5143E+02
     24.879  0.1545E+01  0.5171E+02
     25.065  0.2220E+01  0.5213E+02
     25.250  0.3006E+01  0.5268E+02
     25.436  0.2556E+01  0.5316E+02
     25.622  0.1121E+01  0.5337E+02
     25.808  0.2563E+01  0.5384E+02
     25.993  0.2314E+01  0.5427E+02
     26.179  0.2281E+01  0.5470E+02
     26.365  0.2261E+01  0.5512E+02
     26.551  0.4310E+01  0.5592E+02
     26.736  0.3762E+01  0.5662E+02
     26.922  0.4432E+01  0.5744E+02
     27.108  0.2532E+01  0.5791E+02
     27.294  0.6899E+00  0.5804E+02
     27.479  0.2279E+01  0.5846E+02
     27.665  0.4110E+01  0.5922E+02
     27.851  0.1350E+01  0.5948E+02
     28.037  0.3880E+01  0.6020E+02
     28.222  0.1552E+01  0.6048E+02
     28.408  0.2100E+01  0.6087E+02
     28.594  0.2189E+01  0.6128E+02
     28.780  0.1010E+01  0.6147E+02
     28.965  0.1403E+01  0.6173E+02
     29.151  0.1987E+01  0.6210E+02
     29.337  0.2531E+01  0.6257E+02
     29.523  0.3219E+00  0.6263E+02
     29.708  0.2371E+01  0.6307E+02
     29.894  0.4707E+00  0.6316E+02
     30.080  0.2334E+01  0.6359E+02
     30.266  0.3062E+00  0.6365E+02
     30.451  0.2620E+00  0.6370E+02
     30.637  0.1387E+00  0.6372E+02
     30.823  0.1327E-02  0.6372E+02
     31.008  0.5948E+00  0.6383E+02
     31.194  0.4835E-02  0.6383E+02
     31.380  0.6195E-04  0.6383E+02
     31.566  0.2879E+00  0.6389E+02
     31.751  0.1613E+00  0.6392E+02
     31.937  0.1468E-02  0.6392E+02
     32.123  0.3039E+00  0.6397E+02
     32.309  0.9679E-01  0.6399E+02
     32.494  0.5215E-09  0.6399E+02
     32.680  0.0000E+00  0.6399E+02
     32.866  0.0000E+00  0.6399E+02
     33.052  0.0000E+00  0.6399E+02
     33.237  0.1961E-13  0.6399E+02
     33.423  0.1404E-02  0.6399E+02
     33.609  0.4866E-01  0.6400E+02
     33.795  0.2074E-04  0.6400E+02
     33.980  0.0000E+00  0.6400E+02
     34.166  0.0000E+00  0.6400E+02
     34.352  0.0000E+00  0.6400E+02
     34.538  0.0000E+00  0.6400E+02
     34.723  0.0000E+00  0.6400E+02
     34.909  0.0000E+00  0.6400E+02
     35.095  0.0000E+00  0.6400E+02
     35.281  0.0000E+00  0.6400E+02
     35.466  0.0000E+00  0.6400E+02
     35.652  0.0000E+00  0.6400E+02
     35.838  0.0000E+00  0.6400E+02
     36.024  0.0000E+00  0.6400E+02
