<?xml version="1.0" encoding="ISO-8859-1"?>
<modeling>
 <generator>
  <i name="program" type="string">vasp </i>
  <i name="version" type="string">5.4.4.18Apr17-6-g9f103f2a35  </i>
  <i name="subversion" type="string">(build Nov 03 2018 10:20:46) complex            parallel </i>
  <i name="platform" type="string">LinuxIFC </i>
  <i name="date" type="string">2018 12 06 </i>
  <i name="time" type="string">12:25:26 </i>
 </generator>
 <incar>
  <i type="string" name="SYSTEM">   Xe_FCC</i>
  <i type="string" name="PREC">accurate</i>
  <i type="string" name="ALGO">   Normal</i>
  <i type="logical" name="ADDGRID"> T  </i>
  <i type="logical" name="LSORBIT"> F  </i>
  <i type="int" name="ISPIN">     1</i>
  <i type="int" name="MAXMIX">    50</i>
  <i type="int" name="NELM">    50</i>
  <i type="int" name="NELMDL">    -5</i>
  <i type="int" name="NELMIN">     2</i>
  <i type="int" name="IBRION">    -1</i>
  <i type="int" name="NFREE">     5</i>
  <i name="EDIFF">      0.00000001</i>
  <i name="EDIFFG">      0.00001000</i>
  <i type="int" name="NSW">     1</i>
  <i type="int" name="ISIF">     3</i>
  <i type="int" name="ISYM">     0</i>
  <i name="SYMPREC">      0.00000010</i>
  <i name="ENCUT">    300.00000000</i>
  <i type="int" name="NBANDS">    32</i>
  <i name="POTIM">      0.10000000</i>
  <i type="logical" name="LREAL"> F  </i>
  <i type="int" name="ISMEAR">     0</i>
  <i name="SIGMA">      0.05000000</i>
  <i type="int" name="NWRITE">     2</i>
  <i type="logical" name="LWAVE"> T  </i>
  <i type="logical" name="LCHARG"> T  </i>
  <i type="logical" name="LVTOT"> F  </i>
  <i type="logical" name="GGA_COMPAT"> F  </i>
  <v type="int" name="KPOINT_BSE">    -1     0     0     0</v>
  <i type="int" name="NELM">    50</i>
  <i type="string" name="METAGGA"> SCAN</i>
 </incar>
 <structure name="primitive_cell" >
  <crystal>
   <varray name="basis" >
    <v>       4.43220013       0.00000000       0.00000000 </v>
    <v>       2.21610006       3.83839790      -0.00000000 </v>
    <v>       2.21610006       1.27946597       3.61887625 </v>
   </varray>
   <i name="volume">     61.56630471 </i>
   <varray name="rec_basis" >
    <v>       0.22562158      -0.13026268      -0.09210962 </v>
    <v>       0.00000000       0.26052536      -0.09210962 </v>
    <v>      -0.00000000       0.00000000       0.27632887 </v>
   </varray>
  </crystal>
  <varray name="positions" >
   <v>       0.00000000       0.00000000       0.00000000 </v>
  </varray>
 </structure>
 <varray name="primitive_index" >
  <v type="int" >        1 </v>
 </varray>
 <kpoints>
  <varray name="kpointlist" >
   <v>       0.50000000       0.50000000       0.50000000 </v>
   <v>       0.47500000       0.47500000       0.47500000 </v>
   <v>       0.45000000       0.45000000       0.45000000 </v>
   <v>       0.42500000       0.42500000       0.42500000 </v>
   <v>       0.40000000       0.40000000       0.40000000 </v>
   <v>       0.37500000       0.37500000       0.37500000 </v>
   <v>       0.35000000       0.35000000       0.35000000 </v>
   <v>       0.32500000       0.32500000       0.32500000 </v>
   <v>       0.30000000       0.30000000       0.30000000 </v>
   <v>       0.27500000       0.27500000       0.27500000 </v>
   <v>       0.25000000       0.25000000       0.25000000 </v>
   <v>       0.22500000       0.22500000       0.22500000 </v>
   <v>       0.20000000       0.20000000       0.20000000 </v>
   <v>       0.17500000       0.17500000       0.17500000 </v>
   <v>       0.15000000       0.15000000       0.15000000 </v>
   <v>       0.12500000       0.12500000       0.12500000 </v>
   <v>       0.10000000       0.10000000       0.10000000 </v>
   <v>       0.07500000       0.07500000       0.07500000 </v>
   <v>       0.05000000       0.05000000       0.05000000 </v>
   <v>       0.02500000       0.02500000       0.02500000 </v>
   <v>       0.00000000       0.00000000       0.00000000 </v>
   <v>       0.00000000       0.02500000       0.02500000 </v>
   <v>       0.00000000       0.05000000       0.05000000 </v>
   <v>       0.00000000       0.07500000       0.07500000 </v>
   <v>       0.00000000       0.10000000       0.10000000 </v>
   <v>       0.00000000       0.12500000       0.12500000 </v>
   <v>       0.00000000       0.15000000       0.15000000 </v>
   <v>       0.00000000       0.17500000       0.17500000 </v>
   <v>       0.00000000       0.20000000       0.20000000 </v>
   <v>       0.00000000       0.22500000       0.22500000 </v>
   <v>       0.00000000       0.25000000       0.25000000 </v>
   <v>       0.00000000       0.27500000       0.27500000 </v>
   <v>       0.00000000       0.30000000       0.30000000 </v>
   <v>       0.00000000       0.32500000       0.32500000 </v>
   <v>       0.00000000       0.35000000       0.35000000 </v>
   <v>       0.00000000       0.37500000       0.37500000 </v>
   <v>       0.00000000       0.40000000       0.40000000 </v>
   <v>       0.00000000       0.42500000       0.42500000 </v>
   <v>       0.00000000       0.45000000       0.45000000 </v>
   <v>       0.00000000       0.47500000       0.47500000 </v>
   <v>       0.00000000       0.50000000       0.50000000 </v>
   <v>       0.00000000       0.00000000       0.00000000 </v>
   <v>       0.16666667       0.00000000       0.00000000 </v>
   <v>       0.33333333       0.00000000       0.00000000 </v>
   <v>       0.50000000       0.00000000       0.00000000 </v>
   <v>       0.00000000       0.16666667       0.00000000 </v>
   <v>       0.16666667       0.16666667       0.00000000 </v>
   <v>       0.33333333       0.16666667       0.00000000 </v>
   <v>       0.50000000       0.16666667       0.00000000 </v>
   <v>      -0.33333333       0.16666667       0.00000000 </v>
   <v>      -0.16666667       0.16666667       0.00000000 </v>
   <v>       0.00000000       0.33333333       0.00000000 </v>
   <v>       0.16666667       0.33333333       0.00000000 </v>
   <v>       0.33333333       0.33333333       0.00000000 </v>
   <v>       0.50000000       0.33333333       0.00000000 </v>
   <v>      -0.33333333       0.33333333       0.00000000 </v>
   <v>      -0.16666667       0.33333333       0.00000000 </v>
   <v>       0.00000000       0.50000000       0.00000000 </v>
   <v>       0.16666667       0.50000000       0.00000000 </v>
   <v>       0.33333333       0.50000000       0.00000000 </v>
   <v>       0.50000000       0.50000000       0.00000000 </v>
   <v>       0.00000000       0.00000000       0.16666667 </v>
   <v>       0.16666667       0.00000000       0.16666667 </v>
   <v>       0.33333333       0.00000000       0.16666667 </v>
   <v>       0.50000000       0.00000000       0.16666667 </v>
   <v>      -0.33333333       0.00000000       0.16666667 </v>
   <v>      -0.16666667       0.00000000       0.16666667 </v>
   <v>       0.00000000       0.16666667       0.16666667 </v>
   <v>       0.16666667       0.16666667       0.16666667 </v>
   <v>       0.33333333       0.16666667       0.16666667 </v>
   <v>       0.50000000       0.16666667       0.16666667 </v>
   <v>      -0.33333333       0.16666667       0.16666667 </v>
   <v>      -0.16666667       0.16666667       0.16666667 </v>
   <v>       0.00000000       0.33333333       0.16666667 </v>
   <v>       0.16666667       0.33333333       0.16666667 </v>
   <v>       0.33333333       0.33333333       0.16666667 </v>
   <v>       0.50000000       0.33333333       0.16666667 </v>
   <v>      -0.33333333       0.33333333       0.16666667 </v>
   <v>      -0.16666667       0.33333333       0.16666667 </v>
   <v>       0.00000000       0.50000000       0.16666667 </v>
   <v>       0.16666667       0.50000000       0.16666667 </v>
   <v>       0.33333333       0.50000000       0.16666667 </v>
   <v>       0.50000000       0.50000000       0.16666667 </v>
   <v>      -0.33333333       0.50000000       0.16666667 </v>
   <v>      -0.16666667       0.50000000       0.16666667 </v>
   <v>       0.00000000      -0.33333333       0.16666667 </v>
   <v>       0.16666667      -0.33333333       0.16666667 </v>
   <v>       0.33333333      -0.33333333       0.16666667 </v>
   <v>       0.50000000      -0.33333333       0.16666667 </v>
   <v>      -0.33333333      -0.33333333       0.16666667 </v>
   <v>      -0.16666667      -0.33333333       0.16666667 </v>
   <v>       0.00000000      -0.16666667       0.16666667 </v>
   <v>       0.16666667      -0.16666667       0.16666667 </v>
   <v>       0.33333333      -0.16666667       0.16666667 </v>
   <v>       0.50000000      -0.16666667       0.16666667 </v>
   <v>      -0.33333333      -0.16666667       0.16666667 </v>
   <v>      -0.16666667      -0.16666667       0.16666667 </v>
   <v>       0.00000000       0.00000000       0.33333333 </v>
   <v>       0.16666667       0.00000000       0.33333333 </v>
   <v>       0.33333333       0.00000000       0.33333333 </v>
   <v>       0.50000000       0.00000000       0.33333333 </v>
   <v>      -0.33333333       0.00000000       0.33333333 </v>
   <v>      -0.16666667       0.00000000       0.33333333 </v>
   <v>       0.00000000       0.16666667       0.33333333 </v>
   <v>       0.16666667       0.16666667       0.33333333 </v>
   <v>       0.33333333       0.16666667       0.33333333 </v>
   <v>       0.50000000       0.16666667       0.33333333 </v>
   <v>      -0.33333333       0.16666667       0.33333333 </v>
   <v>      -0.16666667       0.16666667       0.33333333 </v>
   <v>       0.00000000       0.33333333       0.33333333 </v>
   <v>       0.16666667       0.33333333       0.33333333 </v>
   <v>       0.33333333       0.33333333       0.33333333 </v>
   <v>       0.50000000       0.33333333       0.33333333 </v>
   <v>      -0.33333333       0.33333333       0.33333333 </v>
   <v>      -0.16666667       0.33333333       0.33333333 </v>
   <v>       0.00000000       0.50000000       0.33333333 </v>
   <v>       0.16666667       0.50000000       0.33333333 </v>
   <v>       0.33333333       0.50000000       0.33333333 </v>
   <v>       0.50000000       0.50000000       0.33333333 </v>
   <v>      -0.33333333       0.50000000       0.33333333 </v>
   <v>      -0.16666667       0.50000000       0.33333333 </v>
   <v>       0.00000000      -0.33333333       0.33333333 </v>
   <v>       0.16666667      -0.33333333       0.33333333 </v>
   <v>       0.33333333      -0.33333333       0.33333333 </v>
   <v>       0.50000000      -0.33333333       0.33333333 </v>
   <v>      -0.33333333      -0.33333333       0.33333333 </v>
   <v>      -0.16666667      -0.33333333       0.33333333 </v>
   <v>       0.00000000      -0.16666667       0.33333333 </v>
   <v>       0.16666667      -0.16666667       0.33333333 </v>
   <v>       0.33333333      -0.16666667       0.33333333 </v>
   <v>       0.50000000      -0.16666667       0.33333333 </v>
   <v>      -0.33333333      -0.16666667       0.33333333 </v>
   <v>      -0.16666667      -0.16666667       0.33333333 </v>
   <v>       0.00000000       0.00000000       0.50000000 </v>
   <v>       0.16666667       0.00000000       0.50000000 </v>
   <v>       0.33333333       0.00000000       0.50000000 </v>
   <v>       0.50000000       0.00000000       0.50000000 </v>
   <v>       0.00000000       0.16666667       0.50000000 </v>
   <v>       0.16666667       0.16666667       0.50000000 </v>
   <v>       0.33333333       0.16666667       0.50000000 </v>
   <v>       0.50000000       0.16666667       0.50000000 </v>
   <v>      -0.33333333       0.16666667       0.50000000 </v>
   <v>      -0.16666667       0.16666667       0.50000000 </v>
   <v>       0.00000000       0.33333333       0.50000000 </v>
   <v>       0.16666667       0.33333333       0.50000000 </v>
   <v>       0.33333333       0.33333333       0.50000000 </v>
   <v>       0.50000000       0.33333333       0.50000000 </v>
   <v>      -0.33333333       0.33333333       0.50000000 </v>
   <v>      -0.16666667       0.33333333       0.50000000 </v>
   <v>       0.00000000       0.50000000       0.50000000 </v>
   <v>       0.16666667       0.50000000       0.50000000 </v>
   <v>       0.33333333       0.50000000       0.50000000 </v>
  </varray>
  <varray name="weights" >
   <v>       0.00000000 </v>
   <v>       0.00000000 </v>
   <v>       0.00000000 </v>
   <v>       0.00000000 </v>
   <v>       0.00000000 </v>
   <v>       0.00000000 </v>
   <v>       0.00000000 </v>
   <v>       0.00000000 </v>
   <v>       0.00000000 </v>
   <v>       0.00000000 </v>
   <v>       0.00000000 </v>
   <v>       0.00000000 </v>
   <v>       0.00000000 </v>
   <v>       0.00000000 </v>
   <v>       0.00000000 </v>
   <v>       0.00000000 </v>
   <v>       0.00000000 </v>
   <v>       0.00000000 </v>
   <v>       0.00000000 </v>
   <v>       0.00000000 </v>
   <v>       0.00000000 </v>
   <v>       0.00000000 </v>
   <v>       0.00000000 </v>
   <v>       0.00000000 </v>
   <v>       0.00000000 </v>
   <v>       0.00000000 </v>
   <v>       0.00000000 </v>
   <v>       0.00000000 </v>
   <v>       0.00000000 </v>
   <v>       0.00000000 </v>
   <v>       0.00000000 </v>
   <v>       0.00000000 </v>
   <v>       0.00000000 </v>
   <v>       0.00000000 </v>
   <v>       0.00000000 </v>
   <v>       0.00000000 </v>
   <v>       0.00000000 </v>
   <v>       0.00000000 </v>
   <v>       0.00000000 </v>
   <v>       0.00000000 </v>
   <v>       0.00000000 </v>
   <v>       0.00465116 </v>
   <v>       0.00930233 </v>
   <v>       0.00930233 </v>
   <v>       0.00465116 </v>
   <v>       0.00930233 </v>
   <v>       0.00930233 </v>
   <v>       0.00930233 </v>
   <v>       0.00930233 </v>
   <v>       0.00930233 </v>
   <v>       0.00930233 </v>
   <v>       0.00930233 </v>
   <v>       0.00930233 </v>
   <v>       0.00930233 </v>
   <v>       0.00930233 </v>
   <v>       0.00930233 </v>
   <v>       0.00930233 </v>
   <v>       0.00465116 </v>
   <v>       0.00930233 </v>
   <v>       0.00930233 </v>
   <v>       0.00465116 </v>
   <v>       0.00930233 </v>
   <v>       0.00930233 </v>
   <v>       0.00930233 </v>
   <v>       0.00930233 </v>
   <v>       0.00930233 </v>
   <v>       0.00930233 </v>
   <v>       0.00930233 </v>
   <v>       0.00930233 </v>
   <v>       0.00930233 </v>
   <v>       0.00930233 </v>
   <v>       0.00930233 </v>
   <v>       0.00930233 </v>
   <v>       0.00930233 </v>
   <v>       0.00930233 </v>
   <v>       0.00930233 </v>
   <v>       0.00930233 </v>
   <v>       0.00930233 </v>
   <v>       0.00930233 </v>
   <v>       0.00930233 </v>
   <v>       0.00930233 </v>
   <v>       0.00930233 </v>
   <v>       0.00930233 </v>
   <v>       0.00930233 </v>
   <v>       0.00930233 </v>
   <v>       0.00930233 </v>
   <v>       0.00930233 </v>
   <v>       0.00930233 </v>
   <v>       0.00930233 </v>
   <v>       0.00930233 </v>
   <v>       0.00930233 </v>
   <v>       0.00930233 </v>
   <v>       0.00930233 </v>
   <v>       0.00930233 </v>
   <v>       0.00930233 </v>
   <v>       0.00930233 </v>
   <v>       0.00930233 </v>
   <v>       0.00930233 </v>
   <v>       0.00930233 </v>
   <v>       0.00930233 </v>
   <v>       0.00930233 </v>
   <v>       0.00930233 </v>
   <v>       0.00930233 </v>
   <v>       0.00930233 </v>
   <v>       0.00930233 </v>
   <v>       0.00930233 </v>
   <v>       0.00930233 </v>
   <v>       0.00930233 </v>
   <v>       0.00930233 </v>
   <v>       0.00930233 </v>
   <v>       0.00930233 </v>
   <v>       0.00930233 </v>
   <v>       0.00930233 </v>
   <v>       0.00930233 </v>
   <v>       0.00930233 </v>
   <v>       0.00930233 </v>
   <v>       0.00930233 </v>
   <v>       0.00930233 </v>
   <v>       0.00930233 </v>
   <v>       0.00930233 </v>
   <v>       0.00930233 </v>
   <v>       0.00930233 </v>
   <v>       0.00930233 </v>
   <v>       0.00930233 </v>
   <v>       0.00930233 </v>
   <v>       0.00930233 </v>
   <v>       0.00930233 </v>
   <v>       0.00930233 </v>
   <v>       0.00930233 </v>
   <v>       0.00930233 </v>
   <v>       0.00930233 </v>
   <v>       0.00930233 </v>
   <v>       0.00930233 </v>
   <v>       0.00465116 </v>
   <v>       0.00930233 </v>
   <v>       0.00930233 </v>
   <v>       0.00465116 </v>
   <v>       0.00930233 </v>
   <v>       0.00930233 </v>
   <v>       0.00930233 </v>
   <v>       0.00930233 </v>
   <v>       0.00930233 </v>
   <v>       0.00930233 </v>
   <v>       0.00930233 </v>
   <v>       0.00930233 </v>
   <v>       0.00930233 </v>
   <v>       0.00930233 </v>
   <v>       0.00930233 </v>
   <v>       0.00930233 </v>
   <v>       0.00465116 </v>
   <v>       0.00930233 </v>
   <v>       0.00930233 </v>
  </varray>
 </kpoints>
 <parameters>
  <separator name="general" >
   <i type="string" name="SYSTEM">Xe_FCC</i>
   <i type="logical" name="LCOMPAT"> F  </i>
  </separator>
  <separator name="electronic" >
   <i type="string" name="PREC">accura</i>
   <i name="ENMAX">    300.00000000</i>
   <i name="ENAUG">    605.90000000</i>
   <i name="EDIFF">      0.00000001</i>
   <i type="int" name="IALGO">    38</i>
   <i type="int" name="IWAVPR">    10</i>
   <i type="int" name="NBANDS">    32</i>
   <i name="NELECT">      8.00000000</i>
   <i type="int" name="TURBO">     0</i>
   <i type="int" name="IRESTART">     0</i>
   <i type="int" name="NREBOOT">     0</i>
   <i type="int" name="NMIN">     0</i>
   <i name="EREF">      0.00000000</i>
   <separator name="electronic smearing" >
    <i type="int" name="ISMEAR">     0</i>
    <i name="SIGMA">      0.05000000</i>
    <i name="KSPACING">      0.50000000</i>
    <i type="logical" name="KGAMMA"> T  </i>
   </separator>
   <separator name="electronic projectors" >
    <i type="logical" name="LREAL"> F  </i>
    <v name="ROPT">      0.00000000</v>
    <i type="int" name="LMAXPAW">  -100</i>
    <i type="int" name="LMAXMIX">     2</i>
    <i type="logical" name="NLSPLINE"> F  </i>
   </separator>
   <separator name="electronic startup" >
    <i type="int" name="ISTART">     1</i>
    <i type="int" name="ICHARG">     0</i>
    <i type="int" name="INIWAV">     1</i>
   </separator>
   <separator name="electronic spin" >
    <i type="int" name="ISPIN">     1</i>
    <i type="logical" name="LNONCOLLINEAR"> F  </i>
    <v name="MAGMOM">      1.00000000</v>
    <i name="NUPDOWN">     -1.00000000</i>
    <i type="logical" name="LSORBIT"> F  </i>
    <v name="SAXIS">      0.00000000      0.00000000      1.00000000</v>
    <i type="logical" name="LSPIRAL"> F  </i>
    <v name="QSPIRAL">      0.00000000      0.00000000      0.00000000</v>
    <i type="logical" name="LZEROZ"> F  </i>
   </separator>
   <separator name="electronic exchange-correlation" >
    <i type="logical" name="LASPH"> F  </i>
    <i type="logical" name="LMETAGGA"> F  </i>
   </separator>
   <separator name="electronic convergence" >
    <i type="int" name="NELM">    50</i>
    <i type="int" name="NELMDL">    -5</i>
    <i type="int" name="NELMIN">     2</i>
    <i name="ENINI">    300.00000000</i>
    <separator name="electronic convergence detail" >
     <i type="logical" name="LDIAG"> T  </i>
     <i type="logical" name="LSUBROT"> F  </i>
     <i name="WEIMIN">      0.00000000</i>
     <i name="EBREAK">      0.00000000</i>
     <i name="DEPER">      0.30000000</i>
     <i type="int" name="NRMM">     4</i>
     <i name="TIME">      0.40000000</i>
    </separator>
   </separator>
   <separator name="electronic mixer" >
    <i name="AMIX">      0.40000000</i>
    <i name="BMIX">      1.00000000</i>
    <i name="AMIN">      0.10000000</i>
    <i name="AMIX_MAG">      1.60000000</i>
    <i name="BMIX_MAG">      1.00000000</i>
    <separator name="electronic mixer details" >
     <i type="int" name="IMIX">     4</i>
     <i type="logical" name="MIXFIRST"> F  </i>
     <i type="int" name="MAXMIX">    50</i>
     <i name="WC">    100.00000000</i>
     <i type="int" name="INIMIX">     1</i>
     <i type="int" name="MIXPRE">     1</i>
     <i type="int" name="MREMOVE">     5</i>
    </separator>
   </separator>
   <separator name="electronic dipolcorrection" >
    <i type="logical" name="LDIPOL"> F  </i>
    <i type="logical" name="LMONO"> F  </i>
    <i type="int" name="IDIPOL">     0</i>
    <i name="EPSILON">      1.00000000</i>
    <v name="DIPOL">   -100.00000000   -100.00000000   -100.00000000</v>
    <i name="EFIELD">      0.00000000</i>
   </separator>
  </separator>
  <separator name="grids" >
   <i type="int" name="NGX">    28</i>
   <i type="int" name="NGY">    28</i>
   <i type="int" name="NGZ">    28</i>
   <i type="int" name="NGXF">    56</i>
   <i type="int" name="NGYF">    56</i>
   <i type="int" name="NGZF">    56</i>
   <i type="logical" name="ADDGRID"> T  </i>
  </separator>
  <separator name="ionic" >
   <i type="int" name="NSW">     1</i>
   <i type="int" name="IBRION">    -1</i>
   <i type="int" name="MDALGO">     0</i>
   <i type="int" name="ISIF">     3</i>
   <i name="PSTRESS">      0.00000000</i>
   <i name="EDIFFG">      0.00001000</i>
   <i type="int" name="NFREE">     5</i>
   <i name="POTIM">      0.10000000</i>
   <i name="SMASS">     -3.00000000</i>
   <i name="SCALEE">      1.00000000</i>
  </separator>
  <separator name="ionic md" >
   <i name="TEBEG">      0.00010000</i>
   <i name="TEEND">      0.00010000</i>
   <i type="int" name="NBLOCK">     1</i>
   <i type="int" name="KBLOCK">     1</i>
   <i type="int" name="NPACO">   256</i>
   <i name="APACO">     16.00000000</i>
  </separator>
  <separator name="symmetry" >
   <i type="int" name="ISYM">     0</i>
   <i name="SYMPREC">      0.00000010</i>
  </separator>
  <separator name="dos" >
   <i type="int" name="LORBIT">     0</i>
   <v name="RWIGS">     -1.00000000</v>
   <i type="int" name="NEDOS">   301</i>
   <i name="EMIN">     10.00000000</i>
   <i name="EMAX">    -10.00000000</i>
   <i name="EFERMI">      0.00000000</i>
  </separator>
  <separator name="writing" >
   <i type="int" name="NWRITE">     2</i>
   <i type="logical" name="LWAVE"> T  </i>
   <i type="logical" name="LDOWNSAMPLE"> F  </i>
   <i type="logical" name="LCHARG"> T  </i>
   <i type="logical" name="LPARD"> F  </i>
   <i type="logical" name="LVTOT"> F  </i>
   <i type="logical" name="LVHAR"> F  </i>
   <i type="logical" name="LELF"> F  </i>
   <i type="logical" name="LOPTICS"> F  </i>
   <v name="STM">      0.00000000      0.00000000      0.00000000      0.00000000      0.00000000      0.00000000      0.00000000</v>
  </separator>
  <separator name="performance" >
   <i type="int" name="NPAR">     1</i>
   <i type="int" name="NSIM">     4</i>
   <i type="int" name="NBLK">    -1</i>
   <i type="logical" name="LPLANE"> T  </i>
   <i type="logical" name="LSCALAPACK"> T  </i>
   <i type="logical" name="LSCAAWARE"> F  </i>
   <i type="logical" name="LSCALU"> F  </i>
   <i type="logical" name="LASYNC"> F  </i>
   <i type="logical" name="LORBITALREAL"> F  </i>
  </separator>
  <separator name="miscellaneous" >
   <i type="int" name="IDIOT">     3</i>
   <i type="int" name="ISPECIAL">     0</i>
   <i type="logical" name="LMUSIC"> F  </i>
   <v name="POMASS">    131.29400000</v>
   <v name="DARWINR">      0.00000000</v>
   <v name="DARWINV">      1.00000000</v>
   <i type="logical" name="LCORR"> T  </i>
  </separator>
  <i type="logical" name="GGA_COMPAT"> F  </i>
  <i type="logical" name="LBERRY"> F  </i>
  <i type="int" name="ICORELEVEL">     0</i>
  <i type="logical" name="LDAU"> F  </i>
  <i type="int" name="I_CONSTRAINED_M">     0</i>
  <separator name="electronic exchange-correlation" >
   <i type="string" name="GGA">--</i>
   <i type="int" name="VOSKOWN">     0</i>
   <i type="logical" name="LHFCALC"> F  </i>
   <i type="string" name="PRECFOCK"></i>
   <i type="logical" name="LSYMGRAD"> F  </i>
   <i type="logical" name="LHFONE"> F  </i>
   <i type="logical" name="LRHFCALC"> F  </i>
   <i type="logical" name="LTHOMAS"> F  </i>
   <i type="logical" name="LMODELHF"> F  </i>
   <i name="ENCUT4O">     -1.00000000</i>
   <i type="int" name="EXXOEP">     0</i>
   <i type="int" name="FOURORBIT">     0</i>
   <i name="AEXX">      0.00000000</i>
   <i name="HFALPHA">      0.00000000</i>
   <i name="MCALPHA">      0.00000000</i>
   <i name="ALDAX">      1.00000000</i>
   <i name="AGGAX">      1.00000000</i>
   <i name="ALDAC">      1.00000000</i>
   <i name="AGGAC">      1.00000000</i>
   <i type="int" name="NKREDX">     1</i>
   <i type="int" name="NKREDY">     1</i>
   <i type="int" name="NKREDZ">     1</i>
   <i type="logical" name="SHIFTRED"> F  </i>
   <i type="logical" name="ODDONLY"> F  </i>
   <i type="logical" name="EVENONLY"> F  </i>
   <i type="int" name="LMAXFOCK">     0</i>
   <i type="int" name="NMAXFOCKAE">     0</i>
   <i type="logical" name="LFOCKAEDFT"> F  </i>
   <i name="HFSCREEN">      0.00000000</i>
   <i name="HFSCREENC">      0.00000000</i>
   <i type="int" name="NBANDSGWLOW">     0</i>
  </separator>
  <separator name="vdW DFT" >
   <i type="logical" name="LUSE_VDW"> F  </i>
   <i name="Zab_VDW">     -0.84910000</i>
   <i name="PARAM1">      0.12340000</i>
   <i name="PARAM2">      1.00000000</i>
   <i name="PARAM3">      0.00000000</i>
  </separator>
  <separator name="model GW" >
   <i type="int" name="MODEL_GW">     0</i>
   <i name="MODEL_EPS0">     36.93978283</i>
   <i name="MODEL_ALPHA">      1.00000000</i>
  </separator>
  <separator name="linear response parameters" >
   <i type="logical" name="LEPSILON"> F  </i>
   <i type="logical" name="LRPA"> F  </i>
   <i type="logical" name="LNABLA"> F  </i>
   <i type="logical" name="LVEL"> F  </i>
   <i type="int" name="KINTER">     0</i>
   <i name="CSHIFT">      0.10000000</i>
   <i name="OMEGAMAX">     -1.00000000</i>
   <i name="DEG_THRESHOLD">      0.00200000</i>
   <i name="RTIME">     -0.10000000</i>
   <i name="WPLASMAI">      0.00000000</i>
   <v name="DFIELD">      0.00000000      0.00000000      0.00000000</v>
   <v name="WPLASMA">      0.00000000      0.00000000      0.00000000      0.00000000      0.00000000      0.00000000      0.00000000      0.00000000      0.00000000</v>
  </separator>
  <separator name="orbital magnetization" >
   <i type="logical" name="NUCIND"> F  </i>
   <v name="MAGPOS">      0.00000000      0.00000000      0.00000000</v>
   <i type="logical" name="LNICSALL"> T  </i>
   <i type="logical" name="ORBITALMAG"> F  </i>
   <i type="logical" name="LMAGBLOCH"> F  </i>
   <i type="logical" name="LCHIMAG"> F  </i>
   <i type="logical" name="LGAUGE"> T  </i>
   <i type="int" name="MAGATOM">     0</i>
   <v name="MAGDIPOL">      0.00000000      0.00000000      0.00000000</v>
   <v name="AVECCONST">      0.00000000      0.00000000      0.00000000</v>
  </separator>
  <separator name="response functions" >
   <i type="logical" name="LADDER"> F  </i>
   <i type="logical" name="LRPAFORCE"> F  </i>
   <i type="logical" name="LFXC"> F  </i>
   <i type="logical" name="LHARTREE"> T  </i>
   <i type="int" name="IBSE">     0</i>
   <v type="int" name="KPOINT">    -1     0     0     0</v>
   <i type="logical" name="LTCTE"> F  </i>
   <i type="logical" name="LTETE"> F  </i>
   <i type="logical" name="LTRIPLET"> F  </i>
   <i type="logical" name="LFXCEPS"> F  </i>
   <i type="logical" name="LFXHEG"> F  </i>
   <i type="int" name="NATURALO">     2</i>
   <i type="logical" name="L2ORDER"> F  </i>
   <i type="logical" name="LMP2LT"> F  </i>
   <i type="logical" name="LUSEW"> F  </i>
   <i name="ENCUTGW">     -2.00000000</i>
   <i name="ENCUTGWSOFT">     -2.00000000</i>
   <i name="ENCUTLF">     -1.00000000</i>
   <i type="int" name="LMAXMP2">    -1</i>
   <i name="SCISSOR">      0.00000000</i>
   <i type="int" name="NOMEGA">     0</i>
   <i type="int" name="NOMEGAR">     0</i>
   <i type="int" name="NBANDSGW">    -1</i>
   <i type="int" name="NBANDSO">    -1</i>
   <i type="int" name="NBANDSV">    -1</i>
   <i type="int" name="NELM">    50</i>
   <i type="int" name="NELMHF">     1</i>
   <i type="int" name="DIM">     3</i>
   <i type="int" name="ANTIRES">     0</i>
   <i name="OMEGAMAX">    -30.00000000</i>
   <i name="OMEGAMIN">    -30.00000000</i>
   <i name="OMEGATL">   -200.00000000</i>
   <i type="int" name="OMEGAGRID">   140</i>
   <i name="CSHIFT">     -0.10000000</i>
   <i type="logical" name="SELFENERGY"> F  </i>
   <i type="logical" name="LSPECTRAL"> F  </i>
   <i type="logical" name="LSPECTRALGW"> F  </i>
   <i type="logical" name="LSINGLES"> F  </i>
   <i type="logical" name="LFERMIGW"> F  </i>
   <i type="logical" name="ODDONLYGW"> F  </i>
   <i type="logical" name="EVENONLYGW"> F  </i>
   <i type="int" name="NKREDLFX">     1</i>
   <i type="int" name="NKREDLFY">     1</i>
   <i type="int" name="NKREDLFZ">     1</i>
   <i type="int" name="MAXMEM">  2800</i>
   <i type="int" name="TELESCOPE">     0</i>
   <i type="int" name="TAUPAR">     1</i>
   <i type="int" name="OMEGAPAR">    -1</i>
   <i name="LAMBDA">      1.00000000</i>
  </separator>
  <separator name="External order field" >
   <i name="OFIELD_KAPPA">      0.00000000</i>
   <v name="OFIELD_K">      0.00000000      0.00000000      0.00000000</v>
   <i name="OFIELD_Q6_NEAR">      0.00000000</i>
   <i name="OFIELD_Q6_FAR">      0.00000000</i>
   <i name="OFIELD_A">      0.00000000</i>
  </separator>
 </parameters>
 <atominfo>
  <atoms>       1 </atoms>
  <types>       1 </types>
  <array name="atoms" >
   <dimension dim="1">ion</dimension>
   <field type="string">element</field>
   <field type="int">atomtype</field>
   <set>
    <rc><c>Xe</c><c>   1</c></rc>
   </set>
  </array>
  <array name="atomtypes" >
   <dimension dim="1">type</dimension>
   <field type="int">atomspertype</field>
   <field type="string">element</field>
   <field>mass</field>
   <field>valence</field>
   <field type="string">pseudopotential</field>
   <set>
    <rc><c>   1</c><c>Xe</c><c>    131.29400000</c><c>      8.00000000</c><c>  PAW_PBE Xe_GW 08Jan2009               </c></rc>
   </set>
  </array>
 </atominfo>
 <structure name="initialpos" >
  <crystal>
   <varray name="basis" >
    <v>       4.43220013       0.00000000       0.00000000 </v>
    <v>       2.21610006       3.83839790      -0.00000000 </v>
    <v>       2.21610006       1.27946597       3.61887625 </v>
   </varray>
   <i name="volume">     61.56630471 </i>
   <varray name="rec_basis" >
    <v>       0.22562158      -0.13026268      -0.09210962 </v>
    <v>       0.00000000       0.26052536      -0.09210962 </v>
    <v>      -0.00000000       0.00000000       0.27632887 </v>
   </varray>
  </crystal>
  <varray name="positions" >
   <v>       0.00000000       0.00000000       0.00000000 </v>
  </varray>
  <varray name="velocities" >
   <v>       0.00000000       0.00000000       0.00000000 </v>
  </varray>
 </structure>
 <calculation>
  <scstep>
   <time name="dav">    2.23    2.23</time>
   <time name="total">    2.67    2.67</time>
   <energy>
    <i name="alphaZ">     21.17661221 </i>
    <i name="ewald">   -337.05282163 </i>
    <i name="hartreedc">    -68.59478594 </i>
    <i name="XCdc">    -57.19346525 </i>
    <i name="pawpsdc">    416.71701421 </i>
    <i name="pawaedc">   -376.37970230 </i>
    <i name="eentropy">     -0.00000000 </i>
    <i name="bandstr">    -64.42100226 </i>
    <i name="atom">    429.50278051 </i>
    <i name="e_fr_energy">    -36.24537046 </i>
    <i name="e_wo_entrp">    -36.24537046 </i>
    <i name="e_0_energy">    -36.24537046 </i>
   </energy>
  </scstep>
  <scstep>
   <time name="dav">    2.28    2.28</time>
   <time name="total">    2.28    2.28</time>
   <energy>
    <i name="e_fr_energy">    -36.24537046 </i>
    <i name="e_wo_entrp">    -36.24537046 </i>
    <i name="e_0_energy">    -36.24537046 </i>
   </energy>
  </scstep>
  <scstep>
   <time name="dav">    2.24    2.24</time>
   <time name="total">    2.24    2.24</time>
   <energy>
    <i name="e_fr_energy">    -36.24537046 </i>
    <i name="e_wo_entrp">    -36.24537046 </i>
    <i name="e_0_energy">    -36.24537046 </i>
   </energy>
  </scstep>
  <scstep>
   <time name="dav">    2.25    2.25</time>
   <time name="total">    2.25    2.25</time>
   <energy>
    <i name="e_fr_energy">    -36.24537046 </i>
    <i name="e_wo_entrp">    -36.24537046 </i>
    <i name="e_0_energy">    -36.24537046 </i>
   </energy>
  </scstep>
  <scstep>
   <time name="dav">    2.22    2.22</time>
   <time name="total">    2.87    2.87</time>
   <energy>
    <i name="e_fr_energy">    -36.24537046 </i>
    <i name="e_wo_entrp">    -36.24537046 </i>
    <i name="e_0_energy">    -36.24537046 </i>
   </energy>
  </scstep>
  <scstep>
   <time name="dav">    2.22    2.22</time>
   <time name="total">    2.66    2.66</time>
   <energy>
    <i name="alphaZ">     21.17661221 </i>
    <i name="ewald">   -337.05282163 </i>
    <i name="hartreedc">    -68.59478631 </i>
    <i name="XCdc">    -57.19346522 </i>
    <i name="pawpsdc">    416.71701222 </i>
    <i name="pawaedc">   -376.37970036 </i>
    <i name="eentropy">     -0.00000000 </i>
    <i name="bandstr">    -64.42100188 </i>
    <i name="atom">    429.50278051 </i>
    <i name="e_fr_energy">    -36.24537046 </i>
    <i name="e_wo_entrp">    -36.24537046 </i>
    <i name="e_0_energy">    -36.24537046 </i>
   </energy>
  </scstep>
  <structure>
   <crystal>
    <varray name="basis" >
     <v>       4.43220013       0.00000000       0.00000000 </v>
     <v>       2.21610006       3.83839790      -0.00000000 </v>
     <v>       2.21610006       1.27946597       3.61887625 </v>
    </varray>
    <i name="volume">     61.56630471 </i>
    <varray name="rec_basis" >
     <v>       0.22562158      -0.13026268      -0.09210962 </v>
     <v>       0.00000000       0.26052536      -0.09210962 </v>
     <v>      -0.00000000       0.00000000       0.27632887 </v>
    </varray>
   </crystal>
   <varray name="positions" >
    <v>       0.00000000       0.00000000       0.00000000 </v>
   </varray>
  </structure>
  <varray name="forces" >
   <v>       0.00000000      -0.00000000       0.00000000 </v>
  </varray>
  <varray name="stress" >
   <v>       0.35502296       0.44189564       0.31246779 </v>
   <v>       0.44189557      -0.15526904       0.18038055 </v>
   <v>       0.31246826       0.18038002      -0.28237348 </v>
  </varray>
  <energy>
   <i name="e_fr_energy">    -36.24537046 </i>
   <i name="e_wo_entrp">    -36.24537046 </i>
   <i name="e_0_energy">     -0.00000000 </i>
  </energy>
  <time name="totalsc">   29.63   29.68</time>
  <eigenvalues>
   <array>
    <dimension dim="1">band</dimension>
    <dimension dim="2">kpoint</dimension>
    <dimension dim="3">spin</dimension>
    <field>eigene</field>
    <field>occ</field>
    <set>
     <set comment="spin 1">
      <set comment="kpoint 1">
       <r>  -16.9654    1.0000 </r>
       <r>   -5.9448    1.0000 </r>
       <r>   -4.6193    1.0000 </r>
       <r>   -4.6193    1.0000 </r>
       <r>    3.9834    0.0000 </r>
       <r>    6.7031    0.0000 </r>
       <r>    6.7031    0.0000 </r>
       <r>    7.0334    0.0000 </r>
       <r>    9.7706    0.0000 </r>
       <r>   11.0780    0.0000 </r>
       <r>   11.0780    0.0000 </r>
       <r>   12.9736    0.0000 </r>
       <r>   13.0076    0.0000 </r>
       <r>   13.0077    0.0000 </r>
       <r>   17.6270    0.0000 </r>
       <r>   18.2050    0.0000 </r>
       <r>   18.2050    0.0000 </r>
       <r>   19.3033    0.0000 </r>
       <r>   19.9231    0.0000 </r>
       <r>   20.5337    0.0000 </r>
       <r>   20.5337    0.0000 </r>
       <r>   21.3401    0.0000 </r>
       <r>   22.0866    0.0000 </r>
       <r>   22.0866    0.0000 </r>
       <r>   24.8099    0.0000 </r>
       <r>   24.9232    0.0000 </r>
       <r>   25.9763    0.0000 </r>
       <r>   25.9763    0.0000 </r>
       <r>   26.3577    0.0000 </r>
       <r>   26.3577    0.0000 </r>
       <r>   27.5820    0.0000 </r>
       <r>   28.4290    0.0000 </r>
      </set>
      <set comment="kpoint 2">
       <r>  -16.9668    1.0000 </r>
       <r>   -5.9372    1.0000 </r>
       <r>   -4.6182    1.0000 </r>
       <r>   -4.6182    1.0000 </r>
       <r>    3.9842    0.0000 </r>
       <r>    6.7095    0.0000 </r>
       <r>    6.7095    0.0000 </r>
       <r>    7.0168    0.0000 </r>
       <r>    9.7519    0.0000 </r>
       <r>   11.0051    0.0000 </r>
       <r>   11.0051    0.0000 </r>
       <r>   13.0365    0.0000 </r>
       <r>   13.0957    0.0000 </r>
       <r>   13.0957    0.0000 </r>
       <r>   17.4542    0.0000 </r>
       <r>   18.1135    0.0000 </r>
       <r>   18.1135    0.0000 </r>
       <r>   19.4626    0.0000 </r>
       <r>   19.9210    0.0000 </r>
       <r>   20.6010    0.0000 </r>
       <r>   20.6010    0.0000 </r>
       <r>   21.2844    0.0000 </r>
       <r>   22.0924    0.0000 </r>
       <r>   22.0924    0.0000 </r>
       <r>   24.6833    0.0000 </r>
       <r>   25.0395    0.0000 </r>
       <r>   25.9047    0.0000 </r>
       <r>   25.9047    0.0000 </r>
       <r>   26.4369    0.0000 </r>
       <r>   26.4369    0.0000 </r>
       <r>   27.6176    0.0000 </r>
       <r>   28.5017    0.0000 </r>
      </set>
      <set comment="kpoint 3">
       <r>  -16.9708    1.0000 </r>
       <r>   -5.9142    1.0000 </r>
       <r>   -4.6151    1.0000 </r>
       <r>   -4.6151    1.0000 </r>
       <r>    3.9860    0.0000 </r>
       <r>    6.7283    0.0000 </r>
       <r>    6.7283    0.0000 </r>
       <r>    6.9676    0.0000 </r>
       <r>    9.7043    0.0000 </r>
       <r>   10.8176    0.0000 </r>
       <r>   10.8176    0.0000 </r>
       <r>   13.2167    0.0000 </r>
       <r>   13.3283    0.0000 </r>
       <r>   13.3283    0.0000 </r>
       <r>   17.0571    0.0000 </r>
       <r>   17.8786    0.0000 </r>
       <r>   17.8786    0.0000 </r>
       <r>   19.8099    0.0000 </r>
       <r>   19.9056    0.0000 </r>
       <r>   20.7704    0.0000 </r>
       <r>   20.7704    0.0000 </r>
       <r>   21.1323    0.0000 </r>
       <r>   22.1195    0.0000 </r>
       <r>   22.1195    0.0000 </r>
       <r>   24.5215    0.0000 </r>
       <r>   25.1812    0.0000 </r>
       <r>   25.7717    0.0000 </r>
       <r>   25.7717    0.0000 </r>
       <r>   26.6023    0.0000 </r>
       <r>   26.6023    0.0000 </r>
       <r>   27.6977    0.0000 </r>
       <r>   28.7303    0.0000 </r>
      </set>
      <set comment="kpoint 4">
       <r>  -16.9772    1.0000 </r>
       <r>   -5.8762    1.0000 </r>
       <r>   -4.6099    1.0000 </r>
       <r>   -4.6099    1.0000 </r>
       <r>    3.9873    0.0000 </r>
       <r>    6.7593    0.0000 </r>
       <r>    6.7593    0.0000 </r>
       <r>    6.8874    0.0000 </r>
       <r>    9.6472    0.0000 </r>
       <r>   10.5695    0.0000 </r>
       <r>   10.5695    0.0000 </r>
       <r>   13.4930    0.0000 </r>
       <r>   13.6515    0.0000 </r>
       <r>   13.6515    0.0000 </r>
       <r>   16.5755    0.0000 </r>
       <r>   17.5511    0.0000 </r>
       <r>   17.5511    0.0000 </r>
       <r>   19.8889    0.0000 </r>
       <r>   20.1507    0.0000 </r>
       <r>   20.9523    0.0000 </r>
       <r>   20.9777    0.0000 </r>
       <r>   20.9777    0.0000 </r>
       <r>   22.1766    0.0000 </r>
       <r>   22.1766    0.0000 </r>
       <r>   24.3754    0.0000 </r>
       <r>   25.3083    0.0000 </r>
       <r>   25.6330    0.0000 </r>
       <r>   25.6330    0.0000 </r>
       <r>   26.8013    0.0000 </r>
       <r>   26.8013    0.0000 </r>
       <r>   27.7908    0.0000 </r>
       <r>   29.1208    0.0000 </r>
      </set>
      <set comment="kpoint 5">
       <r>  -16.9859    1.0000 </r>
       <r>   -5.8239    1.0000 </r>
       <r>   -4.6027    1.0000 </r>
       <r>   -4.6027    1.0000 </r>
       <r>    3.9855    0.0000 </r>
       <r>    6.7808    0.0000 </r>
       <r>    6.8018    0.0000 </r>
       <r>    6.8018    0.0000 </r>
       <r>    9.6005    0.0000 </r>
       <r>   10.2982    0.0000 </r>
       <r>   10.2982    0.0000 </r>
       <r>   13.8394    0.0000 </r>
       <r>   14.0276    0.0000 </r>
       <r>   14.0276    0.0000 </r>
       <r>   16.0694    0.0000 </r>
       <r>   17.1727    0.0000 </r>
       <r>   17.1727    0.0000 </r>
       <r>   19.8781    0.0000 </r>
       <r>   20.1861    0.0000 </r>
       <r>   21.0028    0.0000 </r>
       <r>   21.1674    0.0000 </r>
       <r>   21.1674    0.0000 </r>
       <r>   22.2779    0.0000 </r>
       <r>   22.2779    0.0000 </r>
       <r>   24.2620    0.0000 </r>
       <r>   25.4361    0.0000 </r>
       <r>   25.5001    0.0000 </r>
       <r>   25.5001    0.0000 </r>
       <r>   27.0189    0.0000 </r>
       <r>   27.0189    0.0000 </r>
       <r>   27.8890    0.0000 </r>
       <r>   29.6450    0.0000 </r>
      </set>
      <set comment="kpoint 6">
       <r>  -16.9965    1.0000 </r>
       <r>   -5.7580    1.0000 </r>
       <r>   -4.5938    1.0000 </r>
       <r>   -4.5938    1.0000 </r>
       <r>    3.9766    0.0000 </r>
       <r>    6.6562    0.0000 </r>
       <r>    6.8549    0.0000 </r>
       <r>    6.8549    0.0000 </r>
       <r>    9.5782    0.0000 </r>
       <r>   10.0239    0.0000 </r>
       <r>   10.0239    0.0000 </r>
       <r>   14.2222    0.0000 </r>
       <r>   14.4353    0.0000 </r>
       <r>   14.4353    0.0000 </r>
       <r>   15.5767    0.0000 </r>
       <r>   16.7691    0.0000 </r>
       <r>   16.7691    0.0000 </r>
       <r>   19.8649    0.0000 </r>
       <r>   19.8718    0.0000 </r>
       <r>   21.3090    0.0000 </r>
       <r>   21.3090    0.0000 </r>
       <r>   21.3263    0.0000 </r>
       <r>   22.4320    0.0000 </r>
       <r>   22.4320    0.0000 </r>
       <r>   24.1760    0.0000 </r>
       <r>   25.3740    0.0000 </r>
       <r>   25.3740    0.0000 </r>
       <r>   25.5678    0.0000 </r>
       <r>   27.2449    0.0000 </r>
       <r>   27.2449    0.0000 </r>
       <r>   28.0082    0.0000 </r>
       <r>   30.2722    0.0000 </r>
      </set>
      <set comment="kpoint 7">
       <r>  -17.0090    1.0000 </r>
       <r>   -5.6796    1.0000 </r>
       <r>   -4.5832    1.0000 </r>
       <r>   -4.5832    1.0000 </r>
       <r>    3.9555    0.0000 </r>
       <r>    6.5254    0.0000 </r>
       <r>    6.9171    0.0000 </r>
       <r>    6.9171    0.0000 </r>
       <r>    9.5869    0.0000 </r>
       <r>    9.7583    0.0000 </r>
       <r>    9.7583    0.0000 </r>
       <r>   14.5198    0.0000 </r>
       <r>   14.8593    0.0000 </r>
       <r>   14.8593    0.0000 </r>
       <r>   15.2142    0.0000 </r>
       <r>   16.3574    0.0000 </r>
       <r>   16.3574    0.0000 </r>
       <r>   19.4445    0.0000 </r>
       <r>   19.8462    0.0000 </r>
       <r>   21.3933    0.0000 </r>
       <r>   21.3933    0.0000 </r>
       <r>   21.6827    0.0000 </r>
       <r>   22.6257    0.0000 </r>
       <r>   22.6257    0.0000 </r>
       <r>   24.1180    0.0000 </r>
       <r>   25.2540    0.0000 </r>
       <r>   25.2540    0.0000 </r>
       <r>   25.6907    0.0000 </r>
       <r>   27.4651    0.0000 </r>
       <r>   27.4652    0.0000 </r>
       <r>   28.1676    0.0000 </r>
       <r>   30.4436    0.0000 </r>
      </set>
      <set comment="kpoint 8">
       <r>  -17.0228    1.0000 </r>
       <r>   -5.5898    1.0000 </r>
       <r>   -4.5714    1.0000 </r>
       <r>   -4.5714    1.0000 </r>
       <r>    3.9160    0.0000 </r>
       <r>    6.4025    0.0000 </r>
       <r>    6.9861    0.0000 </r>
       <r>    6.9861    0.0000 </r>
       <r>    9.5091    0.0000 </r>
       <r>    9.5091    0.0000 </r>
       <r>    9.6282    0.0000 </r>
       <r>   14.3196    0.0000 </r>
       <r>   15.2693    0.0000 </r>
       <r>   15.2693    0.0000 </r>
       <r>   15.3906    0.0000 </r>
       <r>   15.9710    0.0000 </r>
       <r>   15.9710    0.0000 </r>
       <r>   18.9800    0.0000 </r>
       <r>   19.8292    0.0000 </r>
       <r>   21.4409    0.0000 </r>
       <r>   21.4409    0.0000 </r>
       <r>   22.0156    0.0000 </r>
       <r>   22.8409    0.0000 </r>
       <r>   22.8410    0.0000 </r>
       <r>   24.0696    0.0000 </r>
       <r>   25.1448    0.0000 </r>
       <r>   25.1448    0.0000 </r>
       <r>   25.8088    0.0000 </r>
       <r>   27.6679    0.0000 </r>
       <r>   27.6679    0.0000 </r>
       <r>   28.3858    0.0000 </r>
       <r>   30.4429    0.0000 </r>
      </set>
      <set comment="kpoint 9">
       <r>  -17.0376    1.0000 </r>
       <r>   -5.4902    1.0000 </r>
       <r>   -4.5584    1.0000 </r>
       <r>   -4.5584    1.0000 </r>
       <r>    3.8524    0.0000 </r>
       <r>    6.3017    0.0000 </r>
       <r>    7.0588    0.0000 </r>
       <r>    7.0588    0.0000 </r>
       <r>    9.2826    0.0000 </r>
       <r>    9.2826    0.0000 </r>
       <r>    9.7004    0.0000 </r>
       <r>   13.8690    0.0000 </r>
       <r>   15.3685    0.0000 </r>
       <r>   15.3685    0.0000 </r>
       <r>   15.8516    0.0000 </r>
       <r>   15.9064    0.0000 </r>
       <r>   15.9064    0.0000 </r>
       <r>   18.5044    0.0000 </r>
       <r>   19.8109    0.0000 </r>
       <r>   21.4650    0.0000 </r>
       <r>   21.4650    0.0000 </r>
       <r>   22.3079    0.0000 </r>
       <r>   23.0540    0.0000 </r>
       <r>   23.0540    0.0000 </r>
       <r>   24.0346    0.0000 </r>
       <r>   25.0443    0.0000 </r>
       <r>   25.0443    0.0000 </r>
       <r>   25.9026    0.0000 </r>
       <r>   27.8284    0.0000 </r>
       <r>   27.8284    0.0000 </r>
       <r>   28.6745    0.0000 </r>
       <r>   30.5046    0.0000 </r>
      </set>
      <set comment="kpoint 10">
       <r>  -17.0530    1.0000 </r>
       <r>   -5.3827    1.0000 </r>
       <r>   -4.5447    1.0000 </r>
       <r>   -4.5447    1.0000 </r>
       <r>    3.7606    0.0000 </r>
       <r>    6.2342    0.0000 </r>
       <r>    7.1304    0.0000 </r>
       <r>    7.1304    0.0000 </r>
       <r>    9.0855    0.0000 </r>
       <r>    9.0855    0.0000 </r>
       <r>    9.8004    0.0000 </r>
       <r>   13.3943    0.0000 </r>
       <r>   15.0158    0.0000 </r>
       <r>   15.0158    0.0000 </r>
       <r>   16.3053    0.0000 </r>
       <r>   16.3053    0.0000 </r>
       <r>   16.3571    0.0000 </r>
       <r>   18.0397    0.0000 </r>
       <r>   19.7949    0.0000 </r>
       <r>   21.4783    0.0000 </r>
       <r>   21.4783    0.0000 </r>
       <r>   22.5598    0.0000 </r>
       <r>   23.2641    0.0000 </r>
       <r>   23.2641    0.0000 </r>
       <r>   24.0070    0.0000 </r>
       <r>   24.9562    0.0000 </r>
       <r>   24.9562    0.0000 </r>
       <r>   25.9682    0.0000 </r>
       <r>   27.9291    0.0000 </r>
       <r>   27.9291    0.0000 </r>
       <r>   29.0344    0.0000 </r>
       <r>   30.6490    0.0000 </r>
      </set>
      <set comment="kpoint 11">
       <r>  -17.0687    1.0000 </r>
       <r>   -5.2691    1.0000 </r>
       <r>   -4.5305    1.0000 </r>
       <r>   -4.5305    1.0000 </r>
       <r>    3.6408    0.0000 </r>
       <r>    6.2066    0.0000 </r>
       <r>    7.1945    0.0000 </r>
       <r>    7.1945    0.0000 </r>
       <r>    8.9251    0.0000 </r>
       <r>    8.9251    0.0000 </r>
       <r>    9.9244    0.0000 </r>
       <r>   12.9283    0.0000 </r>
       <r>   14.6182    0.0000 </r>
       <r>   14.6182    0.0000 </r>
       <r>   16.7580    0.0000 </r>
       <r>   16.7580    0.0000 </r>
       <r>   16.8033    0.0000 </r>
       <r>   17.6660    0.0000 </r>
       <r>   19.7779    0.0000 </r>
       <r>   21.4817    0.0000 </r>
       <r>   21.4817    0.0000 </r>
       <r>   22.7777    0.0000 </r>
       <r>   23.4583    0.0000 </r>
       <r>   23.4583    0.0000 </r>
       <r>   23.9997    0.0000 </r>
       <r>   24.8784    0.0000 </r>
       <r>   24.8784    0.0000 </r>
       <r>   26.0026    0.0000 </r>
       <r>   27.9371    0.0000 </r>
       <r>   27.9371    0.0000 </r>
       <r>   29.4462    0.0000 </r>
       <r>   30.8797    0.0000 </r>
      </set>
      <set comment="kpoint 12">
       <r>  -17.0843    1.0000 </r>
       <r>   -5.1519    1.0000 </r>
       <r>   -4.5162    1.0000 </r>
       <r>   -4.5162    1.0000 </r>
       <r>    3.4973    0.0000 </r>
       <r>    6.2197    0.0000 </r>
       <r>    7.2429    0.0000 </r>
       <r>    7.2429    0.0000 </r>
       <r>    8.8098    0.0000 </r>
       <r>    8.8098    0.0000 </r>
       <r>   10.0672    0.0000 </r>
       <r>   12.4818    0.0000 </r>
       <r>   14.2235    0.0000 </r>
       <r>   14.2235    0.0000 </r>
       <r>   16.8004    0.0000 </r>
       <r>   17.2147    0.0000 </r>
       <r>   17.2147    0.0000 </r>
       <r>   17.7669    0.0000 </r>
       <r>   19.7585    0.0000 </r>
       <r>   21.4934    0.0000 </r>
       <r>   21.4934    0.0000 </r>
       <r>   22.9483    0.0000 </r>
       <r>   23.6121    0.0000 </r>
       <r>   23.6121    0.0000 </r>
       <r>   23.9808    0.0000 </r>
       <r>   24.8135    0.0000 </r>
       <r>   24.8135    0.0000 </r>
       <r>   26.0057    0.0000 </r>
       <r>   27.8691    0.0000 </r>
       <r>   27.8691    0.0000 </r>
       <r>   29.8572    0.0000 </r>
       <r>   31.1865    0.0000 </r>
      </set>
      <set comment="kpoint 13">
       <r>  -17.0992    1.0000 </r>
       <r>   -5.0338    1.0000 </r>
       <r>   -4.5021    1.0000 </r>
       <r>   -4.5021    1.0000 </r>
       <r>    3.3377    0.0000 </r>
       <r>    6.2702    0.0000 </r>
       <r>    7.2680    0.0000 </r>
       <r>    7.2680    0.0000 </r>
       <r>    8.7468    0.0000 </r>
       <r>    8.7468    0.0000 </r>
       <r>   10.2213    0.0000 </r>
       <r>   12.0645    0.0000 </r>
       <r>   13.8410    0.0000 </r>
       <r>   13.8410    0.0000 </r>
       <r>   16.4165    0.0000 </r>
       <r>   17.6643    0.0000 </r>
       <r>   17.6643    0.0000 </r>
       <r>   18.2742    0.0000 </r>
       <r>   19.7477    0.0000 </r>
       <r>   21.5248    0.0000 </r>
       <r>   21.5248    0.0000 </r>
       <r>   23.0930    0.0000 </r>
       <r>   23.7445    0.0000 </r>
       <r>   23.7445    0.0000 </r>
       <r>   23.9811    0.0000 </r>
       <r>   24.7685    0.0000 </r>
       <r>   24.7685    0.0000 </r>
       <r>   25.9850    0.0000 </r>
       <r>   27.7441    0.0000 </r>
       <r>   27.7441    0.0000 </r>
       <r>   30.1593    0.0000 </r>
       <r>   31.5583    0.0000 </r>
      </set>
      <set comment="kpoint 14">
       <r>  -17.1136    1.0000 </r>
       <r>   -4.9176    1.0000 </r>
       <r>   -4.4887    1.0000 </r>
       <r>   -4.4887    1.0000 </r>
       <r>    3.1710    0.0000 </r>
       <r>    6.3522    0.0000 </r>
       <r>    7.2662    0.0000 </r>
       <r>    7.2662    0.0000 </r>
       <r>    8.7384    0.0000 </r>
       <r>    8.7384    0.0000 </r>
       <r>   10.3706    0.0000 </r>
       <r>   11.6935    0.0000 </r>
       <r>   13.4750    0.0000 </r>
       <r>   13.4750    0.0000 </r>
       <r>   15.9813    0.0000 </r>
       <r>   18.0938    0.0000 </r>
       <r>   18.0938    0.0000 </r>
       <r>   18.8555    0.0000 </r>
       <r>   19.7298    0.0000 </r>
       <r>   21.5593    0.0000 </r>
       <r>   21.5593    0.0000 </r>
       <r>   23.2072    0.0000 </r>
       <r>   23.8272    0.0000 </r>
       <r>   23.8272    0.0000 </r>
       <r>   23.9639    0.0000 </r>
       <r>   24.7490    0.0000 </r>
       <r>   24.7490    0.0000 </r>
       <r>   25.9410    0.0000 </r>
       <r>   27.5477    0.0000 </r>
       <r>   27.5477    0.0000 </r>
       <r>   30.1690    0.0000 </r>
       <r>   31.9596    0.0000 </r>
      </set>
      <set comment="kpoint 15">
       <r>  -17.1266    1.0000 </r>
       <r>   -4.8065    1.0000 </r>
       <r>   -4.4762    1.0000 </r>
       <r>   -4.4762    1.0000 </r>
       <r>    3.0064    0.0000 </r>
       <r>    6.4586    0.0000 </r>
       <r>    7.2408    0.0000 </r>
       <r>    7.2408    0.0000 </r>
       <r>    8.7792    0.0000 </r>
       <r>    8.7792    0.0000 </r>
       <r>   10.4732    0.0000 </r>
       <r>   11.4116    0.0000 </r>
       <r>   13.1301    0.0000 </r>
       <r>   13.1301    0.0000 </r>
       <r>   15.5496    0.0000 </r>
       <r>   18.4950    0.0000 </r>
       <r>   18.4950    0.0000 </r>
       <r>   19.4557    0.0000 </r>
       <r>   19.7135    0.0000 </r>
       <r>   21.6177    0.0000 </r>
       <r>   21.6177    0.0000 </r>
       <r>   23.3157    0.0000 </r>
       <r>   23.8677    0.0000 </r>
       <r>   23.8677    0.0000 </r>
       <r>   23.9521    0.0000 </r>
       <r>   24.7613    0.0000 </r>
       <r>   24.7613    0.0000 </r>
       <r>   25.8760    0.0000 </r>
       <r>   27.3113    0.0000 </r>
       <r>   27.3114    0.0000 </r>
       <r>   29.8628    0.0000 </r>
       <r>   32.3771    0.0000 </r>
      </set>
      <set comment="kpoint 16">
       <r>  -17.1385    1.0000 </r>
       <r>   -4.7042    1.0000 </r>
       <r>   -4.4650    1.0000 </r>
       <r>   -4.4650    1.0000 </r>
       <r>    2.8519    0.0000 </r>
       <r>    6.5816    0.0000 </r>
       <r>    7.2006    0.0000 </r>
       <r>    7.2006    0.0000 </r>
       <r>    8.8568    0.0000 </r>
       <r>    8.8568    0.0000 </r>
       <r>   10.4422    0.0000 </r>
       <r>   11.3068    0.0000 </r>
       <r>   12.8116    0.0000 </r>
       <r>   12.8116    0.0000 </r>
       <r>   15.1352    0.0000 </r>
       <r>   18.8439    0.0000 </r>
       <r>   18.8439    0.0000 </r>
       <r>   19.6985    0.0000 </r>
       <r>   20.0569    0.0000 </r>
       <r>   21.6945    0.0000 </r>
       <r>   21.6945    0.0000 </r>
       <r>   23.3841    0.0000 </r>
       <r>   23.8561    0.0000 </r>
       <r>   23.8561    0.0000 </r>
       <r>   23.9238    0.0000 </r>
       <r>   24.8036    0.0000 </r>
       <r>   24.8036    0.0000 </r>
       <r>   25.7880    0.0000 </r>
       <r>   27.0291    0.0000 </r>
       <r>   27.0291    0.0000 </r>
       <r>   29.4132    0.0000 </r>
       <r>   32.7679    0.0000 </r>
      </set>
      <set comment="kpoint 17">
       <r>  -17.1485    1.0000 </r>
       <r>   -4.6139    1.0000 </r>
       <r>   -4.4554    1.0000 </r>
       <r>   -4.4554    1.0000 </r>
       <r>    2.7149    0.0000 </r>
       <r>    6.7120    0.0000 </r>
       <r>    7.1552    0.0000 </r>
       <r>    7.1553    0.0000 </r>
       <r>    8.9559    0.0000 </r>
       <r>    8.9559    0.0000 </r>
       <r>   10.2670    0.0000 </r>
       <r>   11.3904    0.0000 </r>
       <r>   12.5263    0.0000 </r>
       <r>   12.5263    0.0000 </r>
       <r>   14.7475    0.0000 </r>
       <r>   19.1404    0.0000 </r>
       <r>   19.1404    0.0000 </r>
       <r>   19.6863    0.0000 </r>
       <r>   20.6463    0.0000 </r>
       <r>   21.8059    0.0000 </r>
       <r>   21.8059    0.0000 </r>
       <r>   23.4314    0.0000 </r>
       <r>   23.8173    0.0000 </r>
       <r>   23.8173    0.0000 </r>
       <r>   23.8853    0.0000 </r>
       <r>   24.8739    0.0000 </r>
       <r>   24.8739    0.0000 </r>
       <r>   25.6756    0.0000 </r>
       <r>   26.7430    0.0000 </r>
       <r>   26.7431    0.0000 </r>
       <r>   28.9482    0.0000 </r>
       <r>   33.1014    0.0000 </r>
      </set>
      <set comment="kpoint 18">
       <r>  -17.1565    1.0000 </r>
       <r>   -4.5393    1.0000 </r>
       <r>   -4.4476    1.0000 </r>
       <r>   -4.4476    1.0000 </r>
       <r>    2.6015    0.0000 </r>
       <r>    6.8387    0.0000 </r>
       <r>    7.1129    0.0000 </r>
       <r>    7.1129    0.0000 </r>
       <r>    9.0604    0.0000 </r>
       <r>    9.0604    0.0000 </r>
       <r>   10.0520    0.0000 </r>
       <r>   11.5576    0.0000 </r>
       <r>   12.2832    0.0000 </r>
       <r>   12.2832    0.0000 </r>
       <r>   14.3980    0.0000 </r>
       <r>   19.3706    0.0000 </r>
       <r>   19.3706    0.0000 </r>
       <r>   19.6765    0.0000 </r>
       <r>   21.2057    0.0000 </r>
       <r>   21.9402    0.0000 </r>
       <r>   21.9402    0.0000 </r>
       <r>   23.4677    0.0000 </r>
       <r>   23.7583    0.0000 </r>
       <r>   23.7583    0.0000 </r>
       <r>   23.8287    0.0000 </r>
       <r>   24.9675    0.0000 </r>
       <r>   24.9675    0.0000 </r>
       <r>   25.5401    0.0000 </r>
       <r>   26.4579    0.0000 </r>
       <r>   26.4579    0.0000 </r>
       <r>   28.5359    0.0000 </r>
       <r>   33.3218    0.0000 </r>
      </set>
      <set comment="kpoint 19">
       <r>  -17.1622    1.0000 </r>
       <r>   -4.4834    1.0000 </r>
       <r>   -4.4419    1.0000 </r>
       <r>   -4.4419    1.0000 </r>
       <r>    2.5168    0.0000 </r>
       <r>    6.9479    0.0000 </r>
       <r>    7.0793    0.0000 </r>
       <r>    7.0793    0.0000 </r>
       <r>    9.1535    0.0000 </r>
       <r>    9.1535    0.0000 </r>
       <r>    9.8648    0.0000 </r>
       <r>   11.7355    0.0000 </r>
       <r>   12.0940    0.0000 </r>
       <r>   12.0940    0.0000 </r>
       <r>   14.1051    0.0000 </r>
       <r>   19.5383    0.0000 </r>
       <r>   19.5383    0.0000 </r>
       <r>   19.6701    0.0000 </r>
       <r>   21.7051    0.0000 </r>
       <r>   22.0830    0.0000 </r>
       <r>   22.0830    0.0000 </r>
       <r>   23.4967    0.0000 </r>
       <r>   23.6909    0.0000 </r>
       <r>   23.6909    0.0000 </r>
       <r>   23.7505    0.0000 </r>
       <r>   25.0818    0.0000 </r>
       <r>   25.0818    0.0000 </r>
       <r>   25.3985    0.0000 </r>
       <r>   26.1988    0.0000 </r>
       <r>   26.1988    0.0000 </r>
       <r>   28.2188    0.0000 </r>
       <r>   33.4533    0.0000 </r>
      </set>
      <set comment="kpoint 20">
       <r>  -17.1658    1.0000 </r>
       <r>   -4.4487    1.0000 </r>
       <r>   -4.4384    1.0000 </r>
       <r>   -4.4384    1.0000 </r>
       <r>    2.4643    0.0000 </r>
       <r>    7.0232    0.0000 </r>
       <r>    7.0578    0.0000 </r>
       <r>    7.0578    0.0000 </r>
       <r>    9.2185    0.0000 </r>
       <r>    9.2185    0.0000 </r>
       <r>    9.7390    0.0000 </r>
       <r>   11.8752    0.0000 </r>
       <r>   11.9723    0.0000 </r>
       <r>   11.9723    0.0000 </r>
       <r>   13.9002    0.0000 </r>
       <r>   19.6336    0.0000 </r>
       <r>   19.6336    0.0000 </r>
       <r>   19.6657    0.0000 </r>
       <r>   22.0846    0.0000 </r>
       <r>   22.1934    0.0000 </r>
       <r>   22.1934    0.0000 </r>
       <r>   23.5139    0.0000 </r>
       <r>   23.6310    0.0000 </r>
       <r>   23.6310    0.0000 </r>
       <r>   23.6568    0.0000 </r>
       <r>   25.1876    0.0000 </r>
       <r>   25.1876    0.0000 </r>
       <r>   25.2842    0.0000 </r>
       <r>   25.9932    0.0000 </r>
       <r>   25.9932    0.0000 </r>
       <r>   28.0219    0.0000 </r>
       <r>   33.4820    0.0000 </r>
      </set>
      <set comment="kpoint 21">
       <r>  -17.1669    1.0000 </r>
       <r>   -4.4372    1.0000 </r>
       <r>   -4.4372    1.0000 </r>
       <r>   -4.4369    1.0000 </r>
       <r>    2.4466    0.0000 </r>
       <r>    7.0504    0.0000 </r>
       <r>    7.0505    0.0000 </r>
       <r>    7.0505    0.0000 </r>
       <r>    9.2420    0.0000 </r>
       <r>    9.2420    0.0000 </r>
       <r>    9.6946    0.0000 </r>
       <r>   11.9297    0.0000 </r>
       <r>   11.9301    0.0000 </r>
       <r>   11.9301    0.0000 </r>
       <r>   13.8245    0.0000 </r>
       <r>   19.6642    0.0000 </r>
       <r>   19.6647    0.0000 </r>
       <r>   19.6647    0.0000 </r>
       <r>   22.2365    0.0000 </r>
       <r>   22.2365    0.0000 </r>
       <r>   22.2369    0.0000 </r>
       <r>   23.5195    0.0000 </r>
       <r>   23.6066    0.0000 </r>
       <r>   23.6066    0.0000 </r>
       <r>   23.6066    0.0000 </r>
       <r>   25.2387    0.0000 </r>
       <r>   25.2387    0.0000 </r>
       <r>   25.2395    0.0000 </r>
       <r>   25.9073    0.0000 </r>
       <r>   25.9073    0.0000 </r>
       <r>   27.9556    0.0000 </r>
       <r>   33.4907    0.0000 </r>
      </set>
      <set comment="kpoint 22">
       <r>  -17.1654    1.0000 </r>
       <r>   -4.4488    1.0000 </r>
       <r>   -4.4407    1.0000 </r>
       <r>   -4.4406    1.0000 </r>
       <r>    2.4702    0.0000 </r>
       <r>    7.0086    0.0000 </r>
       <r>    7.0632    0.0000 </r>
       <r>    7.0633    0.0000 </r>
       <r>    9.1721    0.0000 </r>
       <r>    9.2495    0.0000 </r>
       <r>    9.7537    0.0000 </r>
       <r>   11.9352    0.0000 </r>
       <r>   11.9463    0.0000 </r>
       <r>   11.9466    0.0000 </r>
       <r>   13.9266    0.0000 </r>
       <r>   19.6305    0.0000 </r>
       <r>   19.6407    0.0000 </r>
       <r>   19.6410    0.0000 </r>
       <r>   22.1142    0.0000 </r>
       <r>   22.1145    0.0000 </r>
       <r>   22.1673    0.0000 </r>
       <r>   23.5120    0.0000 </r>
       <r>   23.6127    0.0000 </r>
       <r>   23.6664    0.0000 </r>
       <r>   23.6664    0.0000 </r>
       <r>   25.0451    0.0000 </r>
       <r>   25.3198    0.0000 </r>
       <r>   25.3203    0.0000 </r>
       <r>   25.9192    0.0000 </r>
       <r>   26.0816    0.0000 </r>
       <r>   28.0444    0.0000 </r>
       <r>   33.4779    0.0000 </r>
      </set>
      <set comment="kpoint 23">
       <r>  -17.1606    1.0000 </r>
       <r>   -4.4832    1.0000 </r>
       <r>   -4.4513    1.0000 </r>
       <r>   -4.4511    1.0000 </r>
       <r>    2.5402    0.0000 </r>
       <r>    6.8933    0.0000 </r>
       <r>    7.1015    0.0000 </r>
       <r>    7.1016    0.0000 </r>
       <r>    8.9785    0.0000 </r>
       <r>    9.2719    0.0000 </r>
       <r>    9.9209    0.0000 </r>
       <r>   11.9557    0.0000 </r>
       <r>   11.9957    0.0000 </r>
       <r>   11.9960    0.0000 </r>
       <r>   14.2122    0.0000 </r>
       <r>   19.5304    0.0000 </r>
       <r>   19.5637    0.0000 </r>
       <r>   19.5640    0.0000 </r>
       <r>   21.8342    0.0000 </r>
       <r>   21.8345    0.0000 </r>
       <r>   21.9614    0.0000 </r>
       <r>   23.4895    0.0000 </r>
       <r>   23.6305    0.0000 </r>
       <r>   23.7710    0.0000 </r>
       <r>   23.7710    0.0000 </r>
       <r>   24.7196    0.0000 </r>
       <r>   25.5560    0.0000 </r>
       <r>   25.5565    0.0000 </r>
       <r>   25.9536    0.0000 </r>
       <r>   26.3450    0.0000 </r>
       <r>   28.3088    0.0000 </r>
       <r>   33.4281    0.0000 </r>
      </set>
      <set comment="kpoint 24">
       <r>  -17.1530    1.0000 </r>
       <r>   -4.5383    1.0000 </r>
       <r>   -4.4685    1.0000 </r>
       <r>   -4.4684    1.0000 </r>
       <r>    2.6534    0.0000 </r>
       <r>    6.7269    0.0000 </r>
       <r>    7.1649    0.0000 </r>
       <r>    7.1650    0.0000 </r>
       <r>    8.6983    0.0000 </r>
       <r>    9.3090    0.0000 </r>
       <r>   10.1736    0.0000 </r>
       <r>   11.9986    0.0000 </r>
       <r>   12.0777    0.0000 </r>
       <r>   12.0780    0.0000 </r>
       <r>   14.6370    0.0000 </r>
       <r>   19.3680    0.0000 </r>
       <r>   19.4145    0.0000 </r>
       <r>   19.4148    0.0000 </r>
       <r>   21.5221    0.0000 </r>
       <r>   21.5225    0.0000 </r>
       <r>   21.6289    0.0000 </r>
       <r>   23.4521    0.0000 </r>
       <r>   23.6598    0.0000 </r>
       <r>   23.8343    0.0000 </r>
       <r>   23.8343    0.0000 </r>
       <r>   24.4101    0.0000 </r>
       <r>   25.9164    0.0000 </r>
       <r>   25.9169    0.0000 </r>
       <r>   26.0063    0.0000 </r>
       <r>   26.5481    0.0000 </r>
       <r>   28.7204    0.0000 </r>
       <r>   33.2804    0.0000 </r>
      </set>
      <set comment="kpoint 25">
       <r>  -17.1422    1.0000 </r>
       <r>   -4.6113    1.0000 </r>
       <r>   -4.4919    1.0000 </r>
       <r>   -4.4917    1.0000 </r>
       <r>    2.8050    0.0000 </r>
       <r>    6.5313    0.0000 </r>
       <r>    7.2531    0.0000 </r>
       <r>    7.2532    0.0000 </r>
       <r>    8.3703    0.0000 </r>
       <r>    9.3608    0.0000 </r>
       <r>   10.4898    0.0000 </r>
       <r>   12.0675    0.0000 </r>
       <r>   12.1915    0.0000 </r>
       <r>   12.1919    0.0000 </r>
       <r>   15.1592    0.0000 </r>
       <r>   19.1603    0.0000 </r>
       <r>   19.1842    0.0000 </r>
       <r>   19.1844    0.0000 </r>
       <r>   21.1970    0.0000 </r>
       <r>   21.2541    0.0000 </r>
       <r>   21.2545    0.0000 </r>
       <r>   23.4117    0.0000 </r>
       <r>   23.7004    0.0000 </r>
       <r>   23.8574    0.0000 </r>
       <r>   23.8575    0.0000 </r>
       <r>   24.1479    0.0000 </r>
       <r>   26.0812    0.0000 </r>
       <r>   26.3555    0.0000 </r>
       <r>   26.3560    0.0000 </r>
       <r>   26.6911    0.0000 </r>
       <r>   29.2103    0.0000 </r>
       <r>   33.0075    0.0000 </r>
      </set>
      <set comment="kpoint 26">
       <r>  -17.1289    1.0000 </r>
       <r>   -4.6987    1.0000 </r>
       <r>   -4.5207    1.0000 </r>
       <r>   -4.5205    1.0000 </r>
       <r>    2.9881    0.0000 </r>
       <r>    6.3226    0.0000 </r>
       <r>    7.3653    0.0000 </r>
       <r>    7.3653    0.0000 </r>
       <r>    8.0254    0.0000 </r>
       <r>    9.4268    0.0000 </r>
       <r>   10.8532    0.0000 </r>
       <r>   12.1630    0.0000 </r>
       <r>   12.3364    0.0000 </r>
       <r>   12.3367    0.0000 </r>
       <r>   15.7478    0.0000 </r>
       <r>   18.8612    0.0000 </r>
       <r>   18.8613    0.0000 </r>
       <r>   18.9018    0.0000 </r>
       <r>   20.6931    0.0000 </r>
       <r>   21.0605    0.0000 </r>
       <r>   21.0610    0.0000 </r>
       <r>   23.3433    0.0000 </r>
       <r>   23.7526    0.0000 </r>
       <r>   23.8417    0.0000 </r>
       <r>   23.8418    0.0000 </r>
       <r>   23.9052    0.0000 </r>
       <r>   26.1610    0.0000 </r>
       <r>   26.7951    0.0000 </r>
       <r>   26.8276    0.0000 </r>
       <r>   26.8281    0.0000 </r>
       <r>   29.6769    0.0000 </r>
       <r>   32.5385    0.0000 </r>
      </set>
      <set comment="kpoint 27">
       <r>  -17.1135    1.0000 </r>
       <r>   -4.7967    1.0000 </r>
       <r>   -4.5540    1.0000 </r>
       <r>   -4.5538    1.0000 </r>
       <r>    3.1939    0.0000 </r>
       <r>    6.1113    0.0000 </r>
       <r>    7.5007    0.0000 </r>
       <r>    7.5007    0.0000 </r>
       <r>    7.6874    0.0000 </r>
       <r>    9.5068    0.0000 </r>
       <r>   11.2528    0.0000 </r>
       <r>   12.2844    0.0000 </r>
       <r>   12.5109    0.0000 </r>
       <r>   12.5112    0.0000 </r>
       <r>   16.3798    0.0000 </r>
       <r>   18.4577    0.0000 </r>
       <r>   18.4577    0.0000 </r>
       <r>   18.6088    0.0000 </r>
       <r>   20.1457    0.0000 </r>
       <r>   20.9407    0.0000 </r>
       <r>   20.9412    0.0000 </r>
       <r>   23.2534    0.0000 </r>
       <r>   23.6502    0.0000 </r>
       <r>   23.7830    0.0000 </r>
       <r>   23.7831    0.0000 </r>
       <r>   23.8163    0.0000 </r>
       <r>   26.2436    0.0000 </r>
       <r>   26.8732    0.0000 </r>
       <r>   27.3077    0.0000 </r>
       <r>   27.3083    0.0000 </r>
       <r>   29.9721    0.0000 </r>
       <r>   31.9368    0.0000 </r>
      </set>
      <set comment="kpoint 28">
       <r>  -17.0959    1.0000 </r>
       <r>   -4.9017    1.0000 </r>
       <r>   -4.5909    1.0000 </r>
       <r>   -4.5908    1.0000 </r>
       <r>    3.4110    0.0000 </r>
       <r>    5.9040    0.0000 </r>
       <r>    7.3760    0.0000 </r>
       <r>    7.6585    0.0000 </r>
       <r>    7.6586    0.0000 </r>
       <r>    9.6003    0.0000 </r>
       <r>   11.6815    0.0000 </r>
       <r>   12.4314    0.0000 </r>
       <r>   12.7127    0.0000 </r>
       <r>   12.7130    0.0000 </r>
       <r>   17.0374    0.0000 </r>
       <r>   18.0058    0.0000 </r>
       <r>   18.0058    0.0000 </r>
       <r>   18.2949    0.0000 </r>
       <r>   19.5791    0.0000 </r>
       <r>   20.8779    0.0000 </r>
       <r>   20.8785    0.0000 </r>
       <r>   23.1429    0.0000 </r>
       <r>   23.4153    0.0000 </r>
       <r>   23.6880    0.0000 </r>
       <r>   23.6882    0.0000 </r>
       <r>   23.8917    0.0000 </r>
       <r>   26.3494    0.0000 </r>
       <r>   26.9422    0.0000 </r>
       <r>   27.7767    0.0000 </r>
       <r>   27.7773    0.0000 </r>
       <r>   29.9804    0.0000 </r>
       <r>   31.2840    0.0000 </r>
      </set>
      <set comment="kpoint 29">
       <r>  -17.0769    1.0000 </r>
       <r>   -5.0103    1.0000 </r>
       <r>   -4.6304    1.0000 </r>
       <r>   -4.6302    1.0000 </r>
       <r>    3.6243    0.0000 </r>
       <r>    5.7051    0.0000 </r>
       <r>    7.1100    0.0000 </r>
       <r>    7.8379    0.0000 </r>
       <r>    7.8380    0.0000 </r>
       <r>    9.7064    0.0000 </r>
       <r>   12.1345    0.0000 </r>
       <r>   12.6034    0.0000 </r>
       <r>   12.9385    0.0000 </r>
       <r>   12.9388    0.0000 </r>
       <r>   17.5300    0.0000 </r>
       <r>   17.5300    0.0000 </r>
       <r>   17.6957    0.0000 </r>
       <r>   17.9575    0.0000 </r>
       <r>   19.0127    0.0000 </r>
       <r>   20.8474    0.0000 </r>
       <r>   20.8480    0.0000 </r>
       <r>   23.0016    0.0000 </r>
       <r>   23.1565    0.0000 </r>
       <r>   23.5613    0.0000 </r>
       <r>   23.5615    0.0000 </r>
       <r>   23.9786    0.0000 </r>
       <r>   26.4289    0.0000 </r>
       <r>   26.9995    0.0000 </r>
       <r>   28.2100    0.0000 </r>
       <r>   28.2106    0.0000 </r>
       <r>   29.7902    0.0000 </r>
       <r>   30.6247    0.0000 </r>
      </set>
      <set comment="kpoint 30">
       <r>  -17.0567    1.0000 </r>
       <r>   -5.1194    1.0000 </r>
       <r>   -4.6714    1.0000 </r>
       <r>   -4.6712    1.0000 </r>
       <r>    3.8141    0.0000 </r>
       <r>    5.5173    0.0000 </r>
       <r>    6.9104    0.0000 </r>
       <r>    8.0380    0.0000 </r>
       <r>    8.0381    0.0000 </r>
       <r>    9.8244    0.0000 </r>
       <r>   12.6081    0.0000 </r>
       <r>   12.8003    0.0000 </r>
       <r>   13.1825    0.0000 </r>
       <r>   13.1828    0.0000 </r>
       <r>   17.0519    0.0000 </r>
       <r>   17.0519    0.0000 </r>
       <r>   17.6109    0.0000 </r>
       <r>   18.1854    0.0000 </r>
       <r>   18.6029    0.0000 </r>
       <r>   20.8416    0.0000 </r>
       <r>   20.8422    0.0000 </r>
       <r>   22.8422    0.0000 </r>
       <r>   22.8728    0.0000 </r>
       <r>   23.4143    0.0000 </r>
       <r>   23.4145    0.0000 </r>
       <r>   24.0774    0.0000 </r>
       <r>   26.5072    0.0000 </r>
       <r>   27.0464    0.0000 </r>
       <r>   28.5908    0.0000 </r>
       <r>   28.5916    0.0000 </r>
       <r>   29.5546    0.0000 </r>
       <r>   30.0005    0.0000 </r>
      </set>
      <set comment="kpoint 31">
       <r>  -17.0361    1.0000 </r>
       <r>   -5.2262    1.0000 </r>
       <r>   -4.7128    1.0000 </r>
       <r>   -4.7127    1.0000 </r>
       <r>    3.9577    0.0000 </r>
       <r>    5.3425    0.0000 </r>
       <r>    6.7995    0.0000 </r>
       <r>    8.2579    0.0000 </r>
       <r>    8.2580    0.0000 </r>
       <r>    9.9531    0.0000 </r>
       <r>   13.0221    0.0000 </r>
       <r>   13.0993    0.0000 </r>
       <r>   13.4344    0.0000 </r>
       <r>   13.4347    0.0000 </r>
       <r>   16.5892    0.0000 </r>
       <r>   16.5892    0.0000 </r>
       <r>   17.2587    0.0000 </r>
       <r>   17.7784    0.0000 </r>
       <r>   19.0504    0.0000 </r>
       <r>   20.8486    0.0000 </r>
       <r>   20.8491    0.0000 </r>
       <r>   22.5878    0.0000 </r>
       <r>   22.6423    0.0000 </r>
       <r>   23.2310    0.0000 </r>
       <r>   23.2311    0.0000 </r>
       <r>   24.1867    0.0000 </r>
       <r>   26.5603    0.0000 </r>
       <r>   27.0829    0.0000 </r>
       <r>   28.8151    0.0000 </r>
       <r>   28.8158    0.0000 </r>
       <r>   29.3533    0.0000 </r>
       <r>   29.5244    0.0000 </r>
      </set>
      <set comment="kpoint 32">
       <r>  -17.0150    1.0000 </r>
       <r>   -5.3286    1.0000 </r>
       <r>   -4.7537    1.0000 </r>
       <r>   -4.7535    1.0000 </r>
       <r>    4.0362    0.0000 </r>
       <r>    5.1822    0.0000 </r>
       <r>    6.7945    0.0000 </r>
       <r>    8.4969    0.0000 </r>
       <r>    8.4970    0.0000 </r>
       <r>   10.0910    0.0000 </r>
       <r>   13.2687    0.0000 </r>
       <r>   13.6057    0.0000 </r>
       <r>   13.6732    0.0000 </r>
       <r>   13.6735    0.0000 </r>
       <r>   16.1676    0.0000 </r>
       <r>   16.1676    0.0000 </r>
       <r>   16.9117    0.0000 </r>
       <r>   17.2258    0.0000 </r>
       <r>   19.5492    0.0000 </r>
       <r>   20.8744    0.0000 </r>
       <r>   20.8750    0.0000 </r>
       <r>   22.3646    0.0000 </r>
       <r>   22.4331    0.0000 </r>
       <r>   23.0154    0.0000 </r>
       <r>   23.0155    0.0000 </r>
       <r>   24.3107    0.0000 </r>
       <r>   26.6430    0.0000 </r>
       <r>   27.1323    0.0000 </r>
       <r>   28.5702    0.0000 </r>
       <r>   28.5707    0.0000 </r>
       <r>   29.2270    0.0000 </r>
       <r>   29.5446    0.0000 </r>
      </set>
      <set comment="kpoint 33">
       <r>  -16.9944    1.0000 </r>
       <r>   -5.4246    1.0000 </r>
       <r>   -4.7930    1.0000 </r>
       <r>   -4.7929    1.0000 </r>
       <r>    4.0451    0.0000 </r>
       <r>    5.0371    0.0000 </r>
       <r>    6.8966    0.0000 </r>
       <r>    8.7540    0.0000 </r>
       <r>    8.7541    0.0000 </r>
       <r>   10.2362    0.0000 </r>
       <r>   13.5401    0.0000 </r>
       <r>   13.8539    0.0000 </r>
       <r>   13.8541    0.0000 </r>
       <r>   14.1247    0.0000 </r>
       <r>   15.8331    0.0000 </r>
       <r>   15.8331    0.0000 </r>
       <r>   16.5709    0.0000 </r>
       <r>   16.6773    0.0000 </r>
       <r>   19.8409    0.0000 </r>
       <r>   20.8991    0.0000 </r>
       <r>   20.8996    0.0000 </r>
       <r>   22.1855    0.0000 </r>
       <r>   22.2990    0.0000 </r>
       <r>   22.7560    0.0000 </r>
       <r>   22.7561    0.0000 </r>
       <r>   24.4466    0.0000 </r>
       <r>   26.7016    0.0000 </r>
       <r>   27.1976    0.0000 </r>
       <r>   28.1101    0.0000 </r>
       <r>   28.1104    0.0000 </r>
       <r>   29.1722    0.0000 </r>
       <r>   29.7944    0.0000 </r>
      </set>
      <set comment="kpoint 34">
       <r>  -16.9747    1.0000 </r>
       <r>   -5.5125    1.0000 </r>
       <r>   -4.8299    1.0000 </r>
       <r>   -4.8298    1.0000 </r>
       <r>    3.9982    0.0000 </r>
       <r>    4.9081    0.0000 </r>
       <r>    7.0879    0.0000 </r>
       <r>    9.0285    0.0000 </r>
       <r>    9.0286    0.0000 </r>
       <r>   10.3859    0.0000 </r>
       <r>   13.8359    0.0000 </r>
       <r>   13.8957    0.0000 </r>
       <r>   13.8960    0.0000 </r>
       <r>   14.6534    0.0000 </r>
       <r>   15.6666    0.0000 </r>
       <r>   15.6666    0.0000 </r>
       <r>   16.1464    0.0000 </r>
       <r>   16.2430    0.0000 </r>
       <r>   19.8324    0.0000 </r>
       <r>   20.9272    0.0000 </r>
       <r>   20.9278    0.0000 </r>
       <r>   21.9039    0.0000 </r>
       <r>   22.4552    0.0000 </r>
       <r>   22.4553    0.0000 </r>
       <r>   22.4754    0.0000 </r>
       <r>   24.5960    0.0000 </r>
       <r>   26.7544    0.0000 </r>
       <r>   27.3149    0.0000 </r>
       <r>   27.6758    0.0000 </r>
       <r>   27.6761    0.0000 </r>
       <r>   29.1885    0.0000 </r>
       <r>   29.4257    0.0000 </r>
      </set>
      <set comment="kpoint 35">
       <r>  -16.9565    1.0000 </r>
       <r>   -5.5912    1.0000 </r>
       <r>   -4.8636    1.0000 </r>
       <r>   -4.8634    1.0000 </r>
       <r>    3.9178    0.0000 </r>
       <r>    4.7954    0.0000 </r>
       <r>    7.3402    0.0000 </r>
       <r>    9.3197    0.0000 </r>
       <r>    9.3198    0.0000 </r>
       <r>   10.5367    0.0000 </r>
       <r>   13.7415    0.0000 </r>
       <r>   13.7417    0.0000 </r>
       <r>   14.1554    0.0000 </r>
       <r>   15.1882    0.0000 </r>
       <r>   15.6411    0.0000 </r>
       <r>   15.7225    0.0000 </r>
       <r>   15.7226    0.0000 </r>
       <r>   15.9339    0.0000 </r>
       <r>   19.5644    0.0000 </r>
       <r>   20.9554    0.0000 </r>
       <r>   20.9560    0.0000 </r>
       <r>   21.5876    0.0000 </r>
       <r>   22.1131    0.0000 </r>
       <r>   22.1132    0.0000 </r>
       <r>   22.8266    0.0000 </r>
       <r>   24.7597    0.0000 </r>
       <r>   26.8004    0.0000 </r>
       <r>   27.3017    0.0000 </r>
       <r>   27.3020    0.0000 </r>
       <r>   27.4637    0.0000 </r>
       <r>   28.8122    0.0000 </r>
       <r>   29.2650    0.0000 </r>
      </set>
      <set comment="kpoint 36">
       <r>  -16.9403    1.0000 </r>
       <r>   -5.6594    1.0000 </r>
       <r>   -4.8933    1.0000 </r>
       <r>   -4.8931    1.0000 </r>
       <r>    3.8244    0.0000 </r>
       <r>    4.6996    0.0000 </r>
       <r>    7.6244    0.0000 </r>
       <r>    9.6263    0.0000 </r>
       <r>    9.6265    0.0000 </r>
       <r>   10.6841    0.0000 </r>
       <r>   13.4412    0.0000 </r>
       <r>   13.4414    0.0000 </r>
       <r>   14.4948    0.0000 </r>
       <r>   15.1730    0.0000 </r>
       <r>   15.6497    0.0000 </r>
       <r>   15.7243    0.0000 </r>
       <r>   15.9454    0.0000 </r>
       <r>   15.9454    0.0000 </r>
       <r>   19.1572    0.0000 </r>
       <r>   20.9791    0.0000 </r>
       <r>   20.9797    0.0000 </r>
       <r>   21.2376    0.0000 </r>
       <r>   21.7370    0.0000 </r>
       <r>   21.7371    0.0000 </r>
       <r>   23.2150    0.0000 </r>
       <r>   24.9385    0.0000 </r>
       <r>   26.8360    0.0000 </r>
       <r>   26.9893    0.0000 </r>
       <r>   26.9895    0.0000 </r>
       <r>   27.6444    0.0000 </r>
       <r>   28.2513    0.0000 </r>
       <r>   29.4142    0.0000 </r>
      </set>
      <set comment="kpoint 37">
       <r>  -16.9263    1.0000 </r>
       <r>   -5.7162    1.0000 </r>
       <r>   -4.9184    1.0000 </r>
       <r>   -4.9183    1.0000 </r>
       <r>    3.7334    0.0000 </r>
       <r>    4.6210    0.0000 </r>
       <r>    7.9137    0.0000 </r>
       <r>    9.9471    0.0000 </r>
       <r>    9.9473    0.0000 </r>
       <r>   10.8221    0.0000 </r>
       <r>   13.0733    0.0000 </r>
       <r>   13.0734    0.0000 </r>
       <r>   14.6985    0.0000 </r>
       <r>   14.9076    0.0000 </r>
       <r>   15.3973    0.0000 </r>
       <r>   16.2494    0.0000 </r>
       <r>   16.2495    0.0000 </r>
       <r>   16.2547    0.0000 </r>
       <r>   18.6952    0.0000 </r>
       <r>   20.8597    0.0000 </r>
       <r>   20.9999    0.0000 </r>
       <r>   21.0005    0.0000 </r>
       <r>   21.3502    0.0000 </r>
       <r>   21.3502    0.0000 </r>
       <r>   23.5627    0.0000 </r>
       <r>   25.1337    0.0000 </r>
       <r>   26.7448    0.0000 </r>
       <r>   26.7450    0.0000 </r>
       <r>   26.8348    0.0000 </r>
       <r>   27.7440    0.0000 </r>
       <r>   27.8718    0.0000 </r>
       <r>   29.6594    0.0000 </r>
      </set>
      <set comment="kpoint 38">
       <r>  -16.9149    1.0000 </r>
       <r>   -5.7611    1.0000 </r>
       <r>   -4.9385    1.0000 </r>
       <r>   -4.9384    1.0000 </r>
       <r>    3.6547    0.0000 </r>
       <r>    4.5596    0.0000 </r>
       <r>    8.1823    0.0000 </r>
       <r>   10.2795    0.0000 </r>
       <r>   10.2796    0.0000 </r>
       <r>   10.9432    0.0000 </r>
       <r>   12.6833    0.0000 </r>
       <r>   12.6834    0.0000 </r>
       <r>   14.3599    0.0000 </r>
       <r>   15.1867    0.0000 </r>
       <r>   15.2637    0.0000 </r>
       <r>   16.5747    0.0000 </r>
       <r>   16.5748    0.0000 </r>
       <r>   16.7679    0.0000 </r>
       <r>   18.2146    0.0000 </r>
       <r>   20.4669    0.0000 </r>
       <r>   20.9602    0.0000 </r>
       <r>   20.9603    0.0000 </r>
       <r>   21.0322    0.0000 </r>
       <r>   21.0327    0.0000 </r>
       <r>   23.8349    0.0000 </r>
       <r>   25.3497    0.0000 </r>
       <r>   26.5720    0.0000 </r>
       <r>   26.5722    0.0000 </r>
       <r>   26.8592    0.0000 </r>
       <r>   27.2958    0.0000 </r>
       <r>   28.0950    0.0000 </r>
[...]
       <r>   24.1345    0.0000 </r>
       <r>   24.7866    0.0000 </r>
       <r>   25.5247    0.0000 </r>
       <r>   25.8102    0.0000 </r>
       <r>   26.7788    0.0000 </r>
       <r>   27.1016    0.0000 </r>
       <r>   28.4750    0.0000 </r>
       <r>   28.5234    0.0000 </r>
      </set>
      <set comment="kpoint 150">
       <r>  -16.9001    1.0000 </r>
       <r>   -5.8197    1.0000 </r>
       <r>   -4.9650    1.0000 </r>
       <r>   -4.9649    1.0000 </r>
       <r>    3.5449    0.0000 </r>
       <r>    4.4804    0.0000 </r>
       <r>    8.6030    0.0000 </r>
       <r>   11.1174    0.0000 </r>
       <r>   11.1175    0.0000 </r>
       <r>   11.1226    0.0000 </r>
       <r>   11.7534    0.0000 </r>
       <r>   11.7535    0.0000 </r>
       <r>   13.8250    0.0000 </r>
       <r>   14.8908    0.0000 </r>
       <r>   16.2303    0.0000 </r>
       <r>   17.0989    0.0000 </r>
       <r>   17.1721    0.0000 </r>
       <r>   17.1722    0.0000 </r>
       <r>   17.7566    0.0000 </r>
       <r>   19.6197    0.0000 </r>
       <r>   20.3035    0.0000 </r>
       <r>   20.3035    0.0000 </r>
       <r>   21.0375    0.0000 </r>
       <r>   21.0380    0.0000 </r>
       <r>   24.1563    0.0000 </r>
       <r>   25.9862    0.0000 </r>
       <r>   26.3135    0.0000 </r>
       <r>   26.3407    0.0000 </r>
       <r>   26.3409    0.0000 </r>
       <r>   26.8778    0.0000 </r>
       <r>   28.4001    0.0000 </r>
       <r>   31.6700    0.0000 </r>
      </set>
      <set comment="kpoint 151">
       <r>  -16.9167    1.0000 </r>
       <r>   -5.6955    1.0000 </r>
       <r>   -5.0890    1.0000 </r>
       <r>   -4.8833    1.0000 </r>
       <r>    4.0254    0.0000 </r>
       <r>    4.9883    0.0000 </r>
       <r>    7.3631    0.0000 </r>
       <r>    8.9438    0.0000 </r>
       <r>   10.3282    0.0000 </r>
       <r>   11.3793    0.0000 </r>
       <r>   12.4100    0.0000 </r>
       <r>   13.0456    0.0000 </r>
       <r>   13.9919    0.0000 </r>
       <r>   15.7167    0.0000 </r>
       <r>   15.8350    0.0000 </r>
       <r>   16.5947    0.0000 </r>
       <r>   17.0654    0.0000 </r>
       <r>   17.4148    0.0000 </r>
       <r>   18.2781    0.0000 </r>
       <r>   19.3048    0.0000 </r>
       <r>   20.7702    0.0000 </r>
       <r>   21.0095    0.0000 </r>
       <r>   21.5585    0.0000 </r>
       <r>   21.9286    0.0000 </r>
       <r>   24.0926    0.0000 </r>
       <r>   25.1324    0.0000 </r>
       <r>   25.7943    0.0000 </r>
       <r>   26.1457    0.0000 </r>
       <r>   26.9256    0.0000 </r>
       <r>   26.9337    0.0000 </r>
       <r>   28.4225    0.0000 </r>
       <r>   28.8724    0.0000 </r>
      </set>
      <set comment="kpoint 152">
       <r>  -16.9496    1.0000 </r>
       <r>   -5.8021    1.0000 </r>
       <r>   -4.8739    1.0000 </r>
       <r>   -4.7107    1.0000 </r>
       <r>    4.5132    0.0000 </r>
       <r>    5.6144    0.0000 </r>
       <r>    6.9023    0.0000 </r>
       <r>    7.3047    0.0000 </r>
       <r>   10.1221    0.0000 </r>
       <r>   11.1438    0.0000 </r>
       <r>   11.4104    0.0000 </r>
       <r>   12.3760    0.0000 </r>
       <r>   13.2298    0.0000 </r>
       <r>   15.6371    0.0000 </r>
       <r>   17.0444    0.0000 </r>
       <r>   17.0790    0.0000 </r>
       <r>   17.8008    0.0000 </r>
       <r>   18.7872    0.0000 </r>
       <r>   19.4649    0.0000 </r>
       <r>   19.6517    0.0000 </r>
       <r>   20.5649    0.0000 </r>
       <r>   20.9338    0.0000 </r>
       <r>   22.4162    0.0000 </r>
       <r>   22.4550    0.0000 </r>
       <r>   24.4153    0.0000 </r>
       <r>   25.0738    0.0000 </r>
       <r>   25.3524    0.0000 </r>
       <r>   25.3797    0.0000 </r>
       <r>   26.6651    0.0000 </r>
       <r>   26.8723    0.0000 </r>
       <r>   28.0852    0.0000 </r>
       <r>   29.1035    0.0000 </r>
      </set>
     </set>
    </set>
   </array>
  </eigenvalues>
  <separator name="orbital magnetization" >
   <v name="MAGDIPOLOUT">      0.00000000      0.00000000      0.00000000</v>
  </separator>
  <dos>
   <i name="efermi">     -4.07405082 </i>
   <total>
    <array>
     <dimension dim="1">gridpoints</dimension>
     <dimension dim="2">spin</dimension>
     <field>energy</field>
     <field>total</field>
     <field>integrated</field>
     <set>
      <set comment="spin 1">
       <r>   -19.6998     0.0000     0.0000 </r>
       <r>   -19.5141     0.0000     0.0000 </r>
       <r>   -19.3283     0.0000     0.0000 </r>
       <r>   -19.1426     0.0000     0.0000 </r>
       <r>   -18.9569     0.0000     0.0000 </r>
       <r>   -18.7711     0.0000     0.0000 </r>
       <r>   -18.5854     0.0000     0.0000 </r>
       <r>   -18.3996     0.0000     0.0000 </r>
       <r>   -18.2139     0.0000     0.0000 </r>
       <r>   -18.0281     0.0000     0.0000 </r>
       <r>   -17.8424     0.0000     0.0000 </r>
       <r>   -17.6566     0.0000     0.0000 </r>
       <r>   -17.4709     0.0000     0.0000 </r>
       <r>   -17.2851     0.0000     0.0000 </r>
       <r>   -17.0994     0.5602     0.1041 </r>
       <r>   -16.9137     7.8166     1.5560 </r>
       <r>   -16.7279     2.3906     2.0000 </r>
       <r>   -16.5422     0.0000     2.0000 </r>
       <r>   -16.3564     0.0000     2.0000 </r>
       <r>   -16.1707     0.0000     2.0000 </r>
       <r>   -15.9849     0.0000     2.0000 </r>
       <r>   -15.7992     0.0000     2.0000 </r>
       <r>   -15.6134     0.0000     2.0000 </r>
       <r>   -15.4277     0.0000     2.0000 </r>
       <r>   -15.2420     0.0000     2.0000 </r>
       <r>   -15.0562     0.0000     2.0000 </r>
       <r>   -14.8705     0.0000     2.0000 </r>
       <r>   -14.6847     0.0000     2.0000 </r>
       <r>   -14.4990     0.0000     2.0000 </r>
       <r>   -14.3132     0.0000     2.0000 </r>
       <r>   -14.1275     0.0000     2.0000 </r>
       <r>   -13.9417     0.0000     2.0000 </r>
       <r>   -13.7560     0.0000     2.0000 </r>
       <r>   -13.5703     0.0000     2.0000 </r>
       <r>   -13.3845     0.0000     2.0000 </r>
       <r>   -13.1988     0.0000     2.0000 </r>
       <r>   -13.0130     0.0000     2.0000 </r>
       <r>   -12.8273     0.0000     2.0000 </r>
       <r>   -12.6415     0.0000     2.0000 </r>
       <r>   -12.4558     0.0000     2.0000 </r>
       <r>   -12.2700     0.0000     2.0000 </r>
       <r>   -12.0843     0.0000     2.0000 </r>
       <r>   -11.8986     0.0000     2.0000 </r>
       <r>   -11.7128     0.0000     2.0000 </r>
       <r>   -11.5271     0.0000     2.0000 </r>
       <r>   -11.3413     0.0000     2.0000 </r>
       <r>   -11.1556     0.0000     2.0000 </r>
       <r>   -10.9698     0.0000     2.0000 </r>
       <r>   -10.7841     0.0000     2.0000 </r>
       <r>   -10.5983     0.0000     2.0000 </r>
       <r>   -10.4126     0.0000     2.0000 </r>
       <r>   -10.2268     0.0000     2.0000 </r>
       <r>   -10.0411     0.0000     2.0000 </r>
       <r>    -9.8554     0.0000     2.0000 </r>
       <r>    -9.6696     0.0000     2.0000 </r>
       <r>    -9.4839     0.0000     2.0000 </r>
       <r>    -9.2981     0.0000     2.0000 </r>
       <r>    -9.1124     0.0000     2.0000 </r>
       <r>    -8.9266     0.0000     2.0000 </r>
       <r>    -8.7409     0.0000     2.0000 </r>
       <r>    -8.5551     0.0000     2.0000 </r>
       <r>    -8.3694     0.0000     2.0000 </r>
       <r>    -8.1837     0.0000     2.0000 </r>
       <r>    -7.9979     0.0000     2.0000 </r>
       <r>    -7.8122     0.0000     2.0000 </r>
       <r>    -7.6264     0.0000     2.0000 </r>
       <r>    -7.4407     0.0000     2.0000 </r>
       <r>    -7.2549     0.0000     2.0000 </r>
       <r>    -7.0692     0.0000     2.0000 </r>
       <r>    -6.8834     0.0000     2.0000 </r>
       <r>    -6.6977     0.0000     2.0000 </r>
       <r>    -6.5120     0.0000     2.0000 </r>
       <r>    -6.3262     0.0000     2.0000 </r>
       <r>    -6.1405     0.0000     2.0000 </r>
       <r>    -5.9547     0.0596     2.0111 </r>
       <r>    -5.7690     1.2816     2.2491 </r>
       <r>    -5.5832     5.1351     3.2029 </r>
       <r>    -5.3975     3.0932     3.7775 </r>
       <r>    -5.2117     2.2197     4.1898 </r>
       <r>    -5.0260     3.0055     4.7480 </r>
       <r>    -4.8402     5.9383     5.8510 </r>
       <r>    -4.6545     7.0347     7.1577 </r>
       <r>    -4.4688     4.0649     7.9127 </r>
       <r>    -4.2830     0.4698     8.0000 </r>
       <r>    -4.0973     0.0000     8.0000 </r>
       <r>    -3.9115     0.0000     8.0000 </r>
       <r>    -3.7258     0.0000     8.0000 </r>
       <r>    -3.5400     0.0000     8.0000 </r>
       <r>    -3.3543     0.0000     8.0000 </r>
       <r>    -3.1685     0.0000     8.0000 </r>
       <r>    -2.9828     0.0000     8.0000 </r>
       <r>    -2.7971     0.0000     8.0000 </r>
       <r>    -2.6113     0.0000     8.0000 </r>
       <r>    -2.4256     0.0000     8.0000 </r>
       <r>    -2.2398     0.0000     8.0000 </r>
       <r>    -2.0541     0.0000     8.0000 </r>
       <r>    -1.8683     0.0000     8.0000 </r>
       <r>    -1.6826     0.0000     8.0000 </r>
       <r>    -1.4968     0.0000     8.0000 </r>
       <r>    -1.3111     0.0000     8.0000 </r>
       <r>    -1.1254     0.0000     8.0000 </r>
       <r>    -0.9396     0.0000     8.0000 </r>
       <r>    -0.7539     0.0000     8.0000 </r>
       <r>    -0.5681     0.0000     8.0000 </r>
       <r>    -0.3824     0.0000     8.0000 </r>
       <r>    -0.1966     0.0000     8.0000 </r>
       <r>    -0.0109     0.0000     8.0000 </r>
       <r>     0.1749     0.0000     8.0000 </r>
       <r>     0.3606     0.0000     8.0000 </r>
       <r>     0.5464     0.0000     8.0000 </r>
       <r>     0.7321     0.0000     8.0000 </r>
       <r>     0.9178     0.0000     8.0000 </r>
       <r>     1.1036     0.0000     8.0000 </r>
       <r>     1.2893     0.0000     8.0000 </r>
       <r>     1.4751     0.0000     8.0000 </r>
       <r>     1.6608     0.0000     8.0000 </r>
       <r>     1.8466     0.0000     8.0000 </r>
       <r>     2.0323     0.0000     8.0000 </r>
       <r>     2.2181     0.0000     8.0000 </r>
       <r>     2.4038     0.0057     8.0011 </r>
       <r>     2.5895     0.0444     8.0093 </r>
       <r>     2.7753     0.0000     8.0093 </r>
       <r>     2.9610     0.0000     8.0093 </r>
       <r>     3.1468     0.3244     8.0696 </r>
       <r>     3.3325     0.2069     8.1080 </r>
       <r>     3.5183     0.2036     8.1458 </r>
       <r>     3.7040     0.1164     8.1674 </r>
       <r>     3.8898     0.0511     8.1769 </r>
       <r>     4.0755     2.5042     8.6421 </r>
       <r>     4.2612     1.6231     8.9436 </r>
       <r>     4.4470     0.3399     9.0067 </r>
       <r>     4.6327     2.2454     9.4238 </r>
       <r>     4.8185     2.0955     9.8130 </r>
       <r>     5.0042     2.2686    10.2344 </r>
       <r>     5.1900     0.3931    10.3074 </r>
       <r>     5.3757     0.6024    10.4193 </r>
       <r>     5.5615     2.2940    10.8454 </r>
       <r>     5.7472     3.2391    11.4470 </r>
       <r>     5.9329     1.4039    11.7078 </r>
       <r>     6.1187     1.7733    12.0372 </r>
       <r>     6.3044     0.0045    12.0380 </r>
       <r>     6.4902     2.3875    12.4815 </r>
       <r>     6.6759     2.1877    12.8879 </r>
       <r>     6.8617     1.4806    13.1629 </r>
       <r>     7.0474     2.0143    13.5370 </r>
       <r>     7.2332     1.8336    13.8776 </r>
       <r>     7.4189     3.5592    14.5387 </r>
       <r>     7.6047     0.6636    14.6619 </r>
       <r>     7.7904     2.5182    15.1297 </r>
       <r>     7.9761     1.3802    15.3860 </r>
       <r>     8.1619     0.9829    15.5686 </r>
       <r>     8.3476     1.3267    15.8150 </r>
       <r>     8.5334     0.0980    15.8332 </r>
       <r>     8.7191     0.3218    15.8930 </r>
       <r>     8.9049     1.9535    16.2559 </r>
       <r>     9.0906     1.1809    16.4752 </r>
       <r>     9.2764     2.4123    16.9233 </r>
       <r>     9.4621     0.5889    17.0327 </r>
       <r>     9.6478     1.4238    17.2971 </r>
       <r>     9.8336     1.2284    17.5253 </r>
       <r>    10.0193     2.0398    17.9042 </r>
       <r>    10.2051     1.9639    18.2690 </r>
       <r>    10.3908     1.7452    18.5931 </r>
       <r>    10.5766     0.6130    18.7070 </r>
       <r>    10.7623     0.0000    18.7070 </r>
       <r>    10.9481     0.0033    18.7076 </r>
       <r>    11.1338     2.2409    19.1238 </r>
       <r>    11.3195     1.6156    19.4239 </r>
       <r>    11.5053     4.7115    20.2991 </r>
       <r>    11.6910     2.4778    20.7593 </r>
       <r>    11.8768     2.1426    21.1573 </r>
       <r>    12.0625     2.1031    21.5479 </r>
       <r>    12.2483     1.7994    21.8822 </r>
       <r>    12.4340     3.6922    22.5680 </r>
       <r>    12.6198     0.8031    22.7171 </r>
       <r>    12.8055     0.4461    22.8000 </r>
       <r>    12.9913     1.3035    23.0421 </r>
       <r>    13.1770     1.6710    23.3525 </r>
       <r>    13.3627     2.7327    23.8601 </r>
       <r>    13.5485     0.4426    23.9423 </r>
       <r>    13.7342     1.6651    24.2516 </r>
       <r>    13.9200     2.1633    24.6534 </r>
       <r>    14.1057     1.9905    25.0231 </r>
       <r>    14.2915     0.4082    25.0989 </r>
       <r>    14.4772     1.7338    25.4210 </r>
       <r>    14.6630     0.1328    25.4456 </r>
       <r>    14.8487     4.7421    26.3264 </r>
       <r>    15.0344     2.8361    26.8532 </r>
       <r>    15.2202     1.8698    27.2005 </r>
       <r>    15.4059     3.4336    27.8383 </r>
       <r>    15.5917     1.7602    28.1653 </r>
       <r>    15.7774     3.2819    28.7749 </r>
       <r>    15.9632     3.3988    29.4062 </r>
       <r>    16.1489     2.1422    29.8041 </r>
       <r>    16.3347     1.5780    30.0972 </r>
       <r>    16.5204     1.3883    30.3550 </r>
       <r>    16.7061     3.5444    31.0134 </r>
       <r>    16.8919     0.3201    31.0729 </r>
       <r>    17.0776     4.4380    31.8972 </r>
       <r>    17.2634     2.0137    32.2712 </r>
       <r>    17.4491     2.7721    32.7861 </r>
       <r>    17.6349     0.9304    32.9589 </r>
       <r>    17.8206     1.7209    33.2786 </r>
       <r>    18.0064     1.4742    33.5524 </r>
       <r>    18.1921     3.3919    34.1825 </r>
       <r>    18.3779     3.7890    34.8862 </r>
       <r>    18.5636     0.5870    34.9953 </r>
       <r>    18.7493     3.2636    35.6015 </r>
       <r>    18.9351     4.1702    36.3761 </r>
       <r>    19.1208     1.3643    36.6295 </r>
       <r>    19.3066     5.0469    37.5669 </r>
       <r>    19.4923     3.4872    38.2146 </r>
       <r>    19.6781     3.5059    38.8658 </r>
       <r>    19.8638     2.9072    39.4058 </r>
       <r>    20.0496     1.6103    39.7049 </r>
       <r>    20.2353     1.6457    40.0106 </r>
       <r>    20.4210     0.3946    40.0839 </r>
       <r>    20.6068     2.5330    40.5544 </r>
       <r>    20.7925     1.0583    40.7510 </r>
       <r>    20.9783     4.0269    41.4989 </r>
       <r>    21.1640     3.1531    42.0846 </r>
       <r>    21.3498     2.8746    42.6186 </r>
       <r>    21.5355     3.9543    43.3531 </r>
       <r>    21.7213     2.7902    43.8713 </r>
       <r>    21.9070     2.4221    44.3212 </r>
       <r>    22.0927     4.3309    45.1256 </r>
       <r>    22.2785     1.0013    45.3116 </r>
       <r>    22.4642     3.4521    45.9528 </r>
       <r>    22.6500     4.0496    46.7050 </r>
       <r>    22.8357     4.4542    47.5323 </r>
       <r>    23.0215     0.5645    47.6372 </r>
       <r>    23.2072     0.9538    47.8144 </r>
       <r>    23.3930     1.5505    48.1024 </r>
       <r>    23.5787     0.5255    48.2000 </r>
       <r>    23.7644     2.1167    48.5932 </r>
       <r>    23.9502     2.1534    48.9931 </r>
       <r>    24.1359     4.3319    49.7978 </r>
       <r>    24.3217     0.9836    49.9805 </r>
       <r>    24.5074     7.2193    51.3214 </r>
       <r>    24.6932     0.5650    51.4264 </r>
       <r>    24.8789     1.5453    51.7134 </r>
       <r>    25.0647     2.2200    52.1257 </r>
       <r>    25.2504     3.0065    52.6842 </r>
       <r>    25.4362     2.5557    53.1589 </r>
       <r>    25.6219     1.1214    53.3672 </r>
       <r>    25.8076     2.5628    53.8432 </r>
       <r>    25.9934     2.3139    54.2730 </r>
       <r>    26.1791     2.2815    54.6968 </r>
       <r>    26.3649     2.2613    55.1168 </r>
       <r>    26.5506     4.3105    55.9174 </r>
       <r>    26.7364     3.7622    56.6162 </r>
       <r>    26.9221     4.4316    57.4394 </r>
       <r>    27.1079     2.5322    57.9097 </r>
       <r>    27.2936     0.6899    58.0379 </r>
       <r>    27.4793     2.2791    58.4612 </r>
       <r>    27.6651     4.1098    59.2246 </r>
       <r>    27.8508     1.3504    59.4754 </r>
       <r>    28.0366     3.8801    60.1961 </r>
       <r>    28.2223     1.5523    60.4845 </r>
       <r>    28.4081     2.1001    60.8746 </r>
       <r>    28.5938     2.1886    61.2811 </r>
       <r>    28.7796     1.0100    61.4687 </r>
       <r>    28.9653     1.4032    61.7293 </r>
       <r>    29.1510     1.9873    62.0984 </r>
       <r>    29.3368     2.5312    62.5686 </r>
       <r>    29.5225     0.3219    62.6284 </r>
       <r>    29.7083     2.3706    63.0687 </r>
       <r>    29.8940     0.4707    63.1561 </r>
       <r>    30.0798     2.3339    63.5896 </r>
       <r>    30.2655     0.3062    63.6465 </r>
       <r>    30.4513     0.2620    63.6952 </r>
       <r>    30.6370     0.1387    63.7209 </r>
       <r>    30.8228     0.0013    63.7212 </r>
       <r>    31.0085     0.5948    63.8317 </r>
       <r>    31.1942     0.0048    63.8326 </r>
       <r>    31.3800     0.0001    63.8326 </r>
       <r>    31.5657     0.2879    63.8860 </r>
       <r>    31.7515     0.1613    63.9160 </r>
       <r>    31.9372     0.0015    63.9163 </r>
       <r>    32.1230     0.3039    63.9727 </r>
       <r>    32.3087     0.0968    63.9907 </r>
       <r>    32.4945     0.0000    63.9907 </r>
       <r>    32.6802     0.0000    63.9907 </r>
       <r>    32.8659     0.0000    63.9907 </r>
       <r>    33.0517     0.0000    63.9907 </r>
       <r>    33.2374     0.0000    63.9907 </r>
       <r>    33.4232     0.0014    63.9910 </r>
       <r>    33.6089     0.0487    64.0000 </r>
       <r>    33.7947     0.0000    64.0000 </r>
       <r>    33.9804     0.0000    64.0000 </r>
       <r>    34.1662     0.0000    64.0000 </r>
       <r>    34.3519     0.0000    64.0000 </r>
       <r>    34.5376     0.0000    64.0000 </r>
       <r>    34.7234     0.0000    64.0000 </r>
       <r>    34.9091     0.0000    64.0000 </r>
       <r>    35.0949     0.0000    64.0000 </r>
       <r>    35.2806     0.0000    64.0000 </r>
       <r>    35.4664     0.0000    64.0000 </r>
       <r>    35.6521     0.0000    64.0000 </r>
       <r>    35.8379     0.0000    64.0000 </r>
       <r>    36.0236     0.0000    64.0000 </r>
      </set>
     </set>
    </array>
   </total>
  </dos>
 </calculation>
 <structure name="finalpos" >
  <crystal>
   <varray name="basis" >
    <v>       4.43220013       0.00000000       0.00000000 </v>
    <v>       2.21610006       3.83839790      -0.00000000 </v>
    <v>       2.21610006       1.27946597       3.61887625 </v>
   </varray>
   <i name="volume">     61.56630471 </i>
   <varray name="rec_basis" >
    <v>       0.22562158      -0.13026268      -0.09210962 </v>
    <v>       0.00000000       0.26052536      -0.09210962 </v>
    <v>      -0.00000000       0.00000000       0.27632887 </v>
   </varray>
  </crystal>
  <varray name="positions" >
   <v>       0.00000000       0.00000000       0.00000000 </v>
  </varray>
  <varray name="velocities" >
   <v>       0.00000000       0.00000000       0.00000000 </v>
  </varray>
 </structure>
</modeling>
