Og_FCC                                  
           1
     4.347780    0.000000    0.000000
     2.173890    3.765288   -0.000000
     2.173890    1.255096    3.549948
   Og
   1
Direct configuration=     1
   0.00000000  0.00000000  0.00000000
