    1    1    1    1
  0.1860393E+02  0.2974221E-09  0.2974221E-09  0.2974221E-09  0.1000000E-15
  1.000000000000000E-004
  CAR 
 Og_FCC                                  
      8    216    128
 
  0.0000000E+00  0.0000000E+00  0.0000000E+00  0.4629630E-02
    1      -47.774050   1.000000
    2      -47.774050   1.000000
    3      -18.708730   1.000000
    4      -18.708730   1.000000
    5      -18.591200   1.000000
    6      -18.591200   1.000000
    7      -18.589154   1.000000
    8      -18.589154   1.000000
    9        4.132838   0.000000
   10        4.132838   0.000000
   11       24.711594   0.000000
   12       24.711594   0.000000
   13       24.716120   0.000000
   14       24.716120   0.000000
   15       24.716128   0.000000
   16       24.716128   0.000000
   17       23.549627   0.000000
   18       23.549627   0.000000
   19       27.004399   0.000000
   20       27.004399   0.000000
   21       27.013690   0.000000
   22       27.013690   0.000000
   23       27.013831   0.000000
   24       27.013831   0.000000
   25       29.108333   0.000000
   26       29.108333   0.000000
   27       29.108334   0.000000
   28       29.108334   0.000000
   29       29.266759   0.000000
   30       29.266759   0.000000
   31       37.699557   0.000000
   32       37.699558   0.000000
   33       37.734158   0.000000
   34       37.734158   0.000000
   35       37.734452   0.000000
   36       37.734452   0.000000
   37       52.964092   0.000000
   38       52.964092   0.000000
   39       60.671879   0.000000
   40       60.671879   0.000000
   41       60.672060   0.000000
   42       60.672060   0.000000
   43       60.673583   0.000000
   44       60.673584   0.000000
   45       63.086185   0.000000
   46       63.086185   0.000000
   47       63.086190   0.000000
   48       63.086190   0.000000
   49       64.052162   0.000000
   50       64.052162   0.000000
   51       64.052188   0.000000
   52       64.052188   0.000000
   53       64.052203   0.000000
   54       64.052203   0.000000
   55       71.997103   0.000000
   56       71.997103   0.000000
   57       72.014677   0.000000
   58       72.014677   0.000000
   59       72.014681   0.000000
   60       72.014681   0.000000
   61       80.653965   0.000000
   62       80.653965   0.000000
   63       82.218109   0.000000
   64       82.218109   0.000000
   65       82.218118   0.000000
   66       82.218118   0.000000
   67       85.133794   0.000000
   68       85.133794   0.000000
   69       85.133894   0.000000
   70       85.133894   0.000000
   71       85.135929   0.000000
   72       85.135929   0.000000
   73       88.496108   0.000000
   74       88.496108   0.000000
   75       88.496276   0.000000
   76       88.496276   0.000000
   77       88.496332   0.000000
   78       88.496332   0.000000
   79       89.302389   0.000000
   80       89.302389   0.000000
   81       90.034442   0.000000
   82       90.034442   0.000000
   83       90.034446   0.000000
   84       90.034446   0.000000
   85       90.034453   0.000000
   86       90.034453   0.000000
   87       90.945831   0.000000
   88       90.945831   0.000000
   89       90.945845   0.000000
   90       90.945845   0.000000
   91       90.945870   0.000000
   92       90.945870   0.000000
   93       91.813813   0.000000
   94       91.813813   0.000000
   95       91.813829   0.000000
   96       91.813830   0.000000
   97       91.814229   0.000000
   98       91.814229   0.000000
   99       92.284125   0.000000
  100       92.284125   0.000000
  101       92.284128   0.000000
  102       92.284128   0.000000
  103       97.567738   0.000000
  104       97.567738   0.000000
  105       97.571834   0.000000
  106       97.571834   0.000000
  107       97.572094   0.000000
  108       97.572094   0.000000
  109       98.085633   0.000000
  110       98.085633   0.000000
  111       98.172775   0.000000
  112       98.172775   0.000000
  113       98.172889   0.000000
  114       98.172889   0.000000
  115       98.173223   0.000000
  116       98.173223   0.000000
  117       98.744234   0.000000
  118       98.744234   0.000000
  119      113.410587   0.000000
  120      113.410587   0.000000
  121      113.473237   0.000000
  122      113.473237   0.000000
  123      113.473286   0.000000
  124      113.473286   0.000000
  125      128.430623   0.000000
  126      128.430623   0.000000
  127      128.430628   0.000000
  128      128.430628   0.000000
 
  0.1666667E+00  0.0000000E+00  0.6938894E-17  0.4629630E-02
    1      -47.713634   1.000000
    2      -47.713634   1.000000
    3      -18.770556   1.000000
    4      -18.770556   1.000000
    5      -18.304847   1.000000
    6      -18.304847   1.000000
    7      -18.235412   1.000000
    8      -18.235411   1.000000
    9        5.108934   0.000000
   10        5.108934   0.000000
   11       19.920547   0.000000
   12       19.920547   0.000000
   13       24.470609   0.000000
   14       24.470609   0.000000
   15       24.474693   0.000000
   16       24.474694   0.000000
   17       23.809118   0.000000
   18       23.809118   0.000000
   19       25.794183   0.000000
   20       25.794183   0.000000
   21       25.794338   0.000000
   22       25.794338   0.000000
   23       28.614351   0.000000
   24       28.614351   0.000000
   25       31.334966   0.000000
   26       31.334966   0.000000
   27       31.346971   0.000000
   28       31.346971   0.000000
   29       33.831977   0.000000
   30       33.831977   0.000000
   31       37.218329   0.000000
   32       37.218329   0.000000
   33       39.478926   0.000000
   34       39.478926   0.000000
   35       39.491785   0.000000
   36       39.491785   0.000000
   37       53.781373   0.000000
   38       53.781373   0.000000
   39       53.783857   0.000000
   40       53.783857   0.000000
   41       54.186167   0.000000
   42       54.186167   0.000000
   43       59.631954   0.000000
   44       59.631954   0.000000
   45       62.573048   0.000000
   46       62.573048   0.000000
   47       62.574703   0.000000
   48       62.574703   0.000000
   49       64.756815   0.000000
   50       64.756815   0.000000
   51       69.897800   0.000000
   52       69.897800   0.000000
   53       69.902297   0.000000
   54       69.902297   0.000000
   55       69.908209   0.000000
   56       69.908209   0.000000
   57       73.658321   0.000000
   58       73.658321   0.000000
   59       73.659577   0.000000
   60       73.659577   0.000000
   61       77.514214   0.000000
   62       77.514214   0.000000
   63       77.515906   0.000000
   64       77.515906   0.000000
   65       78.216609   0.000000
   66       78.216609   0.000000
   67       80.521406   0.000000
   68       80.521406   0.000000
   69       80.522334   0.000000
   70       80.522334   0.000000
   71       82.042742   0.000000
   72       82.042742   0.000000
   73       82.573570   0.000000
   74       82.573570   0.000000
   75       84.400687   0.000000
   76       84.400687   0.000000
   77       84.404687   0.000000
   78       84.404687   0.000000
   79       85.398747   0.000000
   80       85.398747   0.000000
   81       87.388858   0.000000
   82       87.388858   0.000000
   83       87.498808   0.000000
   84       87.498808   0.000000
   85       87.499350   0.000000
   86       87.499350   0.000000
   87       90.858691   0.000000
   88       90.858691   0.000000
   89       93.333893   0.000000
   90       93.333893   0.000000
   91       93.334276   0.000000
   92       93.334276   0.000000
   93       95.248687   0.000000
   94       95.248687   0.000000
   95       95.250059   0.000000
   96       95.250059   0.000000
   97       95.507580   0.000000
   98       95.507580   0.000000
   99       98.582632   0.000000
  100       98.582632   0.000000
  101       98.582882   0.000000
  102       98.582882   0.000000
  103       99.915488   0.000000
  104       99.915488   0.000000
  105      100.782670   0.000000
  106      100.782670   0.000000
  107      104.288376   0.000000
  108      104.288376   0.000000
  109      104.291603   0.000000
  110      104.291603   0.000000
  111      104.721539   0.000000
  112      104.721539   0.000000
  113      105.350254   0.000000
  114      105.350254   0.000000
  115      105.350432   0.000000
  116      105.350432   0.000000
  117      110.302446   0.000000
  118      110.302446   0.000000
  119      111.398819   0.000000
  120      111.398819   0.000000
  121      111.423133   0.000000
  122      111.423133   0.000000
  123      116.361763   0.000000
  124      116.361764   0.000000
  125      123.533743   0.000000
  126      123.533743   0.000000
  127      124.421379   0.000000
  128      124.421380   0.000000
 
  0.3333333E+00 -0.2775558E-16  0.0000000E+00  0.4629630E-02
    1      -47.690635   1.000000
    2      -47.690635   1.000000
    3      -19.377609   1.000000
    4      -19.377609   1.000000
    5      -18.730788   1.000000
    6      -18.730788   1.000000
    7      -18.657226   1.000000
    8      -18.657224   1.000000
    9        7.561534   0.000000
   10        7.561535   0.000000
   11       15.045128   0.000000
   12       15.045128   0.000000
   13       23.450643   0.000000
   14       23.450643   0.000000
   15       23.452854   0.000000
   16       23.452855   0.000000
   17       22.337049   0.000000
   18       22.337049   0.000000
   19       25.997945   0.000000
   20       25.997945   0.000000
   21       26.005463   0.000000
   22       26.005463   0.000000
   23       30.208567   0.000000
   24       30.208567   0.000000
   25       33.359164   0.000000
   26       33.359164   0.000000
   27       33.371646   0.000000
   28       33.371646   0.000000
   29       37.206787   0.000000
   30       37.206787   0.000000
   31       42.991288   0.000000
   32       42.991288   0.000000
   33       42.991657   0.000000
   34       42.991657   0.000000
   35       44.261540   0.000000
   36       44.261540   0.000000
   37       48.052980   0.000000
   38       48.052980   0.000000
   39       48.062172   0.000000
   40       48.062172   0.000000
   41       52.121050   0.000000
   42       52.121050   0.000000
   43       58.501115   0.000000
   44       58.501115   0.000000
   45       62.851360   0.000000
   46       62.851360   0.000000
   47       62.851823   0.000000
   48       62.851823   0.000000
   49       64.682960   0.000000
   50       64.682960   0.000000
   51       64.684057   0.000000
   52       64.684057   0.000000
   53       66.760799   0.000000
   54       66.760799   0.000000
   55       67.569535   0.000000
   56       67.569535   0.000000
   57       68.106981   0.000000
   58       68.106981   0.000000
   59       71.510876   0.000000
   60       71.510876   0.000000
   61       71.514358   0.000000
   62       71.514358   0.000000
   63       74.776410   0.000000
   64       74.776410   0.000000
   65       74.777005   0.000000
   66       74.777005   0.000000
   67       75.255204   0.000000
   68       75.255204   0.000000
   69       76.230926   0.000000
   70       76.230926   0.000000
   71       80.337627   0.000000
   72       80.337627   0.000000
   73       80.347583   0.000000
   74       80.347583   0.000000
   75       85.801009   0.000000
   76       85.801009   0.000000
   77       86.689736   0.000000
   78       86.689736   0.000000
   79       86.690166   0.000000
   80       86.690166   0.000000
   81       88.166232   0.000000
   82       88.166232   0.000000
   83       88.166561   0.000000
   84       88.166561   0.000000
   85       88.324025   0.000000
   86       88.324025   0.000000
   87       93.007687   0.000000
   88       93.007687   0.000000
   89       94.707014   0.000000
   90       94.707014   0.000000
   91       94.711337   0.000000
   92       94.711337   0.000000
   93       99.268003   0.000000
   94       99.268003   0.000000
   95      101.009497   0.000000
   96      101.009497   0.000000
   97      101.019548   0.000000
   98      101.019548   0.000000
   99      106.591656   0.000000
  100      106.591656   0.000000
  101      106.595958   0.000000
  102      106.595958   0.000000
  103      107.498238   0.000000
  104      107.498238   0.000000
  105      108.744981   0.000000
  106      108.744981   0.000000
  107      108.745390   0.000000
  108      108.745390   0.000000
  109      110.749705   0.000000
  110      110.749705   0.000000
  111      112.511812   0.000000
  112      112.511812   0.000000
  113      113.472897   0.000000
  114      113.472897   0.000000
  115      113.631533   0.000000
  116      113.631533   0.000000
  117      113.631595   0.000000
  118      113.631595   0.000000
  119      116.070480   0.000000
  120      116.070480   0.000000
  121      116.075789   0.000000
  122      116.075789   0.000000
  123      116.120145   0.000000
  124      116.120145   0.000000
  125      121.193422   0.000000
  126      121.193422   0.000000
  127      121.194566   0.000000
  128      121.194566   0.000000
 
  0.5000000E+00  0.0000000E+00 -0.2775558E-16  0.4629630E-02
    1      -47.678890   1.000000
    2      -47.678890   1.000000
    3      -19.858652   1.000000
    4      -19.858652   1.000000
    5      -18.823493   1.000000
    6      -18.823493   1.000000
    7      -18.748128   1.000000
    8      -18.748128   1.000000
    9       10.721665   0.000000
   10       10.721665   0.000000
   11       11.094750   0.000000
   12       11.094750   0.000000
   13       22.921645   0.000000
   14       22.921645   0.000000
   15       22.922905   0.000000
   16       22.922905   0.000000
   17       22.009782   0.000000
   18       22.009782   0.000000
   19       26.410009   0.000000
   20       26.410009   0.000000
   21       26.424922   0.000000
   22       26.424922   0.000000
   23       29.264290   0.000000
   24       29.264290   0.000000
   25       34.846534   0.000000
   26       34.846534   0.000000
   27       34.846750   0.000000
   28       34.846750   0.000000
   29       41.596766   0.000000
   30       41.596766   0.000000
   31       41.608916   0.000000
   32       41.608916   0.000000
   33       41.858364   0.000000
   34       41.858364   0.000000
   35       46.870896   0.000000
   36       46.870896   0.000000
   37       51.752060   0.000000
   38       51.752060   0.000000
   39       51.752205   0.000000
   40       51.752205   0.000000
   41       54.630669   0.000000
   42       54.630669   0.000000
   43       55.349160   0.000000
   44       55.349160   0.000000
   45       55.926817   0.000000
   46       55.926817   0.000000
   47       55.931032   0.000000
   48       55.931032   0.000000
   49       60.745970   0.000000
   50       60.745970   0.000000
   51       64.967458   0.000000
   52       64.967458   0.000000
   53       65.755817   0.000000
   54       65.755817   0.000000
   55       65.758237   0.000000
   56       65.758237   0.000000
   57       68.915146   0.000000
   58       68.915146   0.000000
   59       70.677849   0.000000
   60       70.677849   0.000000
   61       70.678299   0.000000
   62       70.678299   0.000000
   63       71.971332   0.000000
   64       71.971333   0.000000
   65       71.971505   0.000000
   66       71.971505   0.000000
   67       72.633099   0.000000
   68       72.633099   0.000000
   69       75.906360   0.000000
   70       75.906360   0.000000
   71       80.359102   0.000000
   72       80.359102   0.000000
   73       80.372710   0.000000
   74       80.372710   0.000000
   75       86.036874   0.000000
   76       86.036874   0.000000
   77       86.130735   0.000000
   78       86.130735   0.000000
   79       86.131895   0.000000
   80       86.131896   0.000000
   81       86.824006   0.000000
   82       86.824006   0.000000
   83       93.861892   0.000000
   84       93.861892   0.000000
   85       93.874685   0.000000
   86       93.874685   0.000000
   87       96.762064   0.000000
   88       96.762065   0.000000
   89       99.184402   0.000000
   90       99.184402   0.000000
   91       99.186453   0.000000
   92       99.186453   0.000000
   93      103.725949   0.000000
   94      103.725949   0.000000
   95      103.726971   0.000000
   96      103.726971   0.000000
   97      103.840273   0.000000
   98      103.840273   0.000000
   99      103.891956   0.000000
  100      103.891956   0.000000
  101      104.321774   0.000000
  102      104.321774   0.000000
  103      104.322166   0.000000
  104      104.322167   0.000000
  105      111.271453   0.000000
  106      111.271453   0.000000
  107      111.281521   0.000000
  108      111.281521   0.000000
  109      111.902486   0.000000
  110      111.902486   0.000000
  111      115.058728   0.000000
  112      115.058728   0.000000
  113      115.059271   0.000000
  114      115.059271   0.000000
  115      117.632831   0.000000
  116      117.632831   0.000000
  117      120.028990   0.000000
  118      120.028990   0.000000
  119      120.030123   0.000000
  120      120.030123   0.000000
  121      120.915577   0.000000
  122      120.915577   0.000000
  123      120.916000   0.000000
  124      120.916000   0.000000
  125      122.885547   0.000000
  126      122.885547   0.000000
  127      123.020034   0.000000
  128      123.020034   0.000000
 
 -0.3333333E+00  0.2775558E-16  0.0000000E+00  0.4629630E-02
    1      -47.690548   1.000000
    2      -47.690548   1.000000
    3      -19.377057   1.000000
    4      -19.377056   1.000000
    5      -18.730453   1.000000
    6      -18.730453   1.000000
    7      -18.656886   1.000000
    8      -18.656884   1.000000
    9        7.561551   0.000000
   10        7.561551   0.000000
   11       15.045200   0.000000
   12       15.045200   0.000000
   13       23.450648   0.000000
   14       23.450648   0.000000
   15       23.452859   0.000000
   16       23.452860   0.000000
   17       22.337049   0.000000
   18       22.337049   0.000000
   19       25.997945   0.000000
   20       25.997945   0.000000
   21       26.005463   0.000000
   22       26.005463   0.000000
   23       30.208567   0.000000
   24       30.208567   0.000000
   25       33.359164   0.000000
   26       33.359164   0.000000
   27       33.371646   0.000000
   28       33.371646   0.000000
   29       37.206787   0.000000
   30       37.206787   0.000000
   31       42.991288   0.000000
   32       42.991288   0.000000
   33       42.991657   0.000000
   34       42.991657   0.000000
   35       44.261540   0.000000
   36       44.261540   0.000000
   37       48.052980   0.000000
   38       48.052980   0.000000
   39       48.062172   0.000000
   40       48.062172   0.000000
   41       52.121050   0.000000
   42       52.121050   0.000000
   43       58.501115   0.000000
   44       58.501115   0.000000
   45       62.851360   0.000000
   46       62.851360   0.000000
   47       62.851823   0.000000
   48       62.851823   0.000000
   49       64.682960   0.000000
   50       64.682960   0.000000
   51       64.684057   0.000000
   52       64.684057   0.000000
   53       66.760799   0.000000
   54       66.760799   0.000000
   55       67.569535   0.000000
   56       67.569535   0.000000
   57       68.106981   0.000000
   58       68.106981   0.000000
   59       71.510876   0.000000
   60       71.510876   0.000000
   61       71.514358   0.000000
   62       71.514358   0.000000
   63       74.776410   0.000000
   64       74.776410   0.000000
   65       74.777005   0.000000
   66       74.777005   0.000000
   67       75.255204   0.000000
   68       75.255204   0.000000
   69       76.230926   0.000000
   70       76.230926   0.000000
   71       80.337627   0.000000
   72       80.337627   0.000000
   73       80.347583   0.000000
   74       80.347583   0.000000
   75       85.801009   0.000000
   76       85.801009   0.000000
   77       86.689736   0.000000
   78       86.689736   0.000000
   79       86.690166   0.000000
   80       86.690166   0.000000
   81       88.166232   0.000000
   82       88.166232   0.000000
   83       88.166561   0.000000
   84       88.166561   0.000000
   85       88.324025   0.000000
   86       88.324025   0.000000
   87       93.007687   0.000000
   88       93.007687   0.000000
   89       94.707014   0.000000
   90       94.707014   0.000000
   91       94.711337   0.000000
   92       94.711337   0.000000
   93       99.268003   0.000000
   94       99.268003   0.000000
   95      101.009497   0.000000
   96      101.009497   0.000000
   97      101.019548   0.000000
   98      101.019548   0.000000
   99      106.591656   0.000000
  100      106.591656   0.000000
  101      106.595958   0.000000
  102      106.595958   0.000000
  103      107.498238   0.000000
  104      107.498238   0.000000
  105      108.744981   0.000000
  106      108.744981   0.000000
  107      108.745390   0.000000
  108      108.745390   0.000000
  109      110.749705   0.000000
  110      110.749705   0.000000
  111      112.511812   0.000000
  112      112.511812   0.000000
  113      113.472897   0.000000
  114      113.472897   0.000000
  115      113.631533   0.000000
  116      113.631533   0.000000
  117      113.631595   0.000000
  118      113.631595   0.000000
  119      116.070480   0.000000
  120      116.070480   0.000000
  121      116.075789   0.000000
  122      116.075789   0.000000
  123      116.120145   0.000000
  124      116.120145   0.000000
  125      121.193422   0.000000
  126      121.193422   0.000000
  127      121.194566   0.000000
  128      121.194566   0.000000
 
 -0.1666667E+00  0.0000000E+00 -0.6938894E-17  0.4629630E-02
    1      -47.713593   1.000000
    2      -47.713593   1.000000
    3      -18.770247   1.000000
    4      -18.770246   1.000000
    5      -18.304678   1.000000
    6      -18.304677   1.000000
    7      -18.235242   1.000000
    8      -18.235242   1.000000
    9        5.108922   0.000000
   10        5.108922   0.000000
   11       19.920557   0.000000
   12       19.920557   0.000000
   13       24.470610   0.000000
   14       24.470610   0.000000
   15       24.474694   0.000000
   16       24.474694   0.000000
   17       23.809118   0.000000
   18       23.809118   0.000000
   19       25.794183   0.000000
   20       25.794183   0.000000
   21       25.794338   0.000000
   22       25.794338   0.000000
   23       28.614351   0.000000
   24       28.614351   0.000000
   25       31.334966   0.000000
   26       31.334966   0.000000
   27       31.346971   0.000000
   28       31.346971   0.000000
   29       33.831977   0.000000
   30       33.831977   0.000000
   31       37.218329   0.000000
   32       37.218329   0.000000
   33       39.478926   0.000000
   34       39.478926   0.000000
   35       39.491785   0.000000
   36       39.491785   0.000000
   37       53.781373   0.000000
   38       53.781373   0.000000
   39       53.783857   0.000000
   40       53.783857   0.000000
   41       54.186167   0.000000
   42       54.186167   0.000000
   43       59.631954   0.000000
   44       59.631954   0.000000
   45       62.573048   0.000000
   46       62.573048   0.000000
   47       62.574703   0.000000
   48       62.574703   0.000000
   49       64.756815   0.000000
   50       64.756815   0.000000
   51       69.897800   0.000000
   52       69.897800   0.000000
   53       69.902297   0.000000
   54       69.902297   0.000000
   55       69.908209   0.000000
   56       69.908209   0.000000
   57       73.658321   0.000000
   58       73.658321   0.000000
   59       73.659577   0.000000
   60       73.659577   0.000000
   61       77.514214   0.000000
   62       77.514214   0.000000
   63       77.515906   0.000000
   64       77.515906   0.000000
   65       78.216609   0.000000
   66       78.216609   0.000000
   67       80.521406   0.000000
   68       80.521406   0.000000
   69       80.522334   0.000000
   70       80.522334   0.000000
   71       82.042742   0.000000
   72       82.042742   0.000000
   73       82.573570   0.000000
   74       82.573570   0.000000
   75       84.400687   0.000000
   76       84.400687   0.000000
   77       84.404687   0.000000
   78       84.404687   0.000000
   79       85.398747   0.000000
   80       85.398747   0.000000
   81       87.388858   0.000000
   82       87.388858   0.000000
   83       87.498808   0.000000
   84       87.498808   0.000000
   85       87.499350   0.000000
   86       87.499350   0.000000
   87       90.858691   0.000000
   88       90.858691   0.000000
   89       93.333893   0.000000
   90       93.333893   0.000000
   91       93.334276   0.000000
   92       93.334276   0.000000
   93       95.248687   0.000000
   94       95.248687   0.000000
   95       95.250059   0.000000
   96       95.250059   0.000000
   97       95.507580   0.000000
   98       95.507580   0.000000
   99       98.582632   0.000000
  100       98.582632   0.000000
  101       98.582882   0.000000
  102       98.582882   0.000000
  103       99.915488   0.000000
  104       99.915488   0.000000
  105      100.782670   0.000000
  106      100.782670   0.000000
  107      104.288376   0.000000
  108      104.288376   0.000000
  109      104.291603   0.000000
  110      104.291603   0.000000
  111      104.721539   0.000000
  112      104.721539   0.000000
  113      105.350254   0.000000
  114      105.350254   0.000000
  115      105.350432   0.000000
  116      105.350432   0.000000
  117      110.302446   0.000000
  118      110.302446   0.000000
  119      111.398819   0.000000
  120      111.398819   0.000000
  121      111.423133   0.000000
  122      111.423133   0.000000
  123      116.361763   0.000000
  124      116.361764   0.000000
  125      123.533743   0.000000
  126      123.533743   0.000000
  127      124.421379   0.000000
  128      124.421380   0.000000
 
  0.0000000E+00  0.1666667E+00  0.6938894E-17  0.4629630E-02
    1      -47.713634   1.000000
    2      -47.713634   1.000000
    3      -18.770556   1.000000
    4      -18.770556   1.000000
    5      -18.304847   1.000000
    6      -18.304847   1.000000
    7      -18.235412   1.000000
    8      -18.235411   1.000000
    9        5.108934   0.000000
   10        5.108934   0.000000
   11       19.920547   0.000000
   12       19.920547   0.000000
   13       24.470609   0.000000
   14       24.470609   0.000000
   15       24.474693   0.000000
   16       24.474694   0.000000
   17       23.809118   0.000000
   18       23.809118   0.000000
   19       25.794183   0.000000
   20       25.794183   0.000000
   21       25.794337   0.000000
   22       25.794337   0.000000
   23       28.614351   0.000000
   24       28.614351   0.000000
   25       31.334966   0.000000
   26       31.334966   0.000000
   27       31.346971   0.000000
   28       31.346971   0.000000
   29       33.831978   0.000000
   30       33.831978   0.000000
   31       37.218330   0.000000
   32       37.218330   0.000000
   33       39.478925   0.000000
   34       39.478925   0.000000
   35       39.491784   0.000000
   36       39.491784   0.000000
   37       53.781373   0.000000
   38       53.781373   0.000000
   39       53.783856   0.000000
   40       53.783856   0.000000
   41       54.186167   0.000000
   42       54.186167   0.000000
   43       59.631953   0.000000
   44       59.631953   0.000000
   45       62.573051   0.000000
   46       62.573051   0.000000
   47       62.574706   0.000000
   48       62.574706   0.000000
   49       64.756811   0.000000
   50       64.756811   0.000000
   51       69.897800   0.000000
   52       69.897800   0.000000
   53       69.902299   0.000000
   54       69.902299   0.000000
   55       69.908210   0.000000
   56       69.908210   0.000000
   57       73.658320   0.000000
   58       73.658320   0.000000
   59       73.659576   0.000000
   60       73.659576   0.000000
   61       77.514211   0.000000
   62       77.514211   0.000000
   63       77.515904   0.000000
   64       77.515904   0.000000
   65       78.216612   0.000000
   66       78.216613   0.000000
   67       80.521407   0.000000
   68       80.521407   0.000000
   69       80.522335   0.000000
   70       80.522335   0.000000
   71       82.042742   0.000000
   72       82.042742   0.000000
   73       82.573567   0.000000
   74       82.573567   0.000000
   75       84.400687   0.000000
   76       84.400687   0.000000
   77       84.404688   0.000000
   78       84.404688   0.000000
   79       85.398750   0.000000
   80       85.398750   0.000000
   81       87.388858   0.000000
   82       87.388858   0.000000
   83       87.498804   0.000000
   84       87.498804   0.000000
   85       87.499348   0.000000
   86       87.499348   0.000000
   87       90.858693   0.000000
   88       90.858693   0.000000
   89       93.333896   0.000000
   90       93.333896   0.000000
   91       93.334279   0.000000
   92       93.334279   0.000000
   93       95.248685   0.000000
   94       95.248685   0.000000
   95       95.250057   0.000000
   96       95.250057   0.000000
   97       95.507578   0.000000
   98       95.507578   0.000000
   99       98.582632   0.000000
  100       98.582632   0.000000
  101       98.582883   0.000000
  102       98.582883   0.000000
  103       99.915485   0.000000
  104       99.915485   0.000000
  105      100.782673   0.000000
  106      100.782673   0.000000
  107      104.288376   0.000000
  108      104.288376   0.000000
  109      104.291602   0.000000
  110      104.291602   0.000000
  111      104.721541   0.000000
  112      104.721541   0.000000
  113      105.350252   0.000000
  114      105.350252   0.000000
  115      105.350433   0.000000
  116      105.350433   0.000000
  117      110.302446   0.000000
  118      110.302446   0.000000
  119      111.398818   0.000000
  120      111.398818   0.000000
  121      111.423132   0.000000