<?xml version="1.0" encoding="ISO-8859-1"?>
<modeling>
 <generator>
  <i name="program" type="string">vasp </i>
  <i name="version" type="string">5.4.4.18Apr17-6-g9f103f2a35  </i>
  <i name="subversion" type="string">(build Jul 09 2018 16:43:14) complex            parallel </i>
  <i name="platform" type="string">LinuxIFC </i>
  <i name="date" type="string">2018 11 29 </i>
  <i name="time" type="string">21:39:07 </i>
 </generator>
 <incar>
  <i type="string" name="SYSTEM">   Og_FCC</i>
  <i type="string" name="PREC">accurate</i>
  <i type="string" name="ALGO">   QPGW</i>
  <i type="logical" name="ADDGRID"> T  </i>
  <i type="logical" name="LSORBIT"> T  </i>
  <i type="int" name="ISPIN">     1</i>
  <i type="int" name="MAXMIX">    50</i>
  <i type="int" name="NELM">     1</i>
  <i type="int" name="IBRION">    -1</i>
  <i type="int" name="NFREE">     5</i>
  <i name="EDIFF">      0.00000001</i>
  <i name="EDIFFG">      0.00001000</i>
  <i type="int" name="NSW">     1</i>
  <i type="int" name="ISIF">     3</i>
  <i type="int" name="ISYM">     0</i>
  <i name="SYMPREC">      0.00000010</i>
  <i name="ENCUT">    300.00000000</i>
  <i type="int" name="NBANDS">   128</i>
  <i name="POTIM">      0.10000000</i>
  <i type="logical" name="LREAL"> F  </i>
  <i type="int" name="ISMEAR">     0</i>
  <i name="SIGMA">      0.00100000</i>
  <i type="int" name="NWRITE">     1</i>
  <i type="logical" name="LWAVE"> T  </i>
  <i type="logical" name="LCHARG"> F  </i>
  <i type="logical" name="LVTOT"> F  </i>
  <i type="logical" name="GGA_COMPAT"> F  </i>
  <i type="int" name="NOMEGA">    50</i>
  <v type="int" name="KPOINT_BSE">    -1     0     0     0</v>
  <i type="logical" name="LSPECTRAL"> T  </i>
  <i type="int" name="NELM">     1</i>
  <i type="string" name="METAGGA"> SCAN</i>
 </incar>
 <structure name="primitive_cell" >
  <crystal>
   <varray name="basis" >
    <v>       2.97422087       0.00000000       0.00000000 </v>
    <v>       1.48711043       2.57575083       0.00000000 </v>
    <v>       1.48711043       0.85858361       2.42844117 </v>
   </varray>
   <i name="volume">     18.60392805 </i>
   <varray name="rec_basis" >
    <v>       0.33622251      -0.19411816      -0.13726226 </v>
    <v>       0.00000000       0.38823631      -0.13726226 </v>
    <v>       0.00000000       0.00000000       0.41178679 </v>
   </varray>
  </crystal>
  <varray name="positions" >
   <v>       0.00000000       0.00000000       0.00000000 </v>
  </varray>
 </structure>
 <varray name="primitive_index" >
  <v type="int" >        1 </v>
 </varray>
 <kpoints>
  <generation param="Gamma">
   <v type="int" name="divisions">       6        6        6 </v>
   <v name="usershift">      0.00000000       0.00000000       0.00000000 </v>
   <v name="genvec1">      0.16666667       0.00000000      -0.00000000 </v>
   <v name="genvec2">      0.00000000       0.16666667       0.00000000 </v>
   <v name="genvec3">      0.00000000       0.00000000       0.16666667 </v>
   <v name="shift">      0.00000000       0.00000000       0.00000000 </v>
  </generation>
  <varray name="kpointlist" >
   <v>       0.00000000       0.00000000       0.00000000 </v>
   <v>       0.16666667       0.00000000       0.00000000 </v>
   <v>       0.33333333      -0.00000000       0.00000000 </v>
   <v>       0.50000000       0.00000000      -0.00000000 </v>
   <v>      -0.33333333       0.00000000       0.00000000 </v>
   <v>      -0.16666667       0.00000000      -0.00000000 </v>
   <v>       0.00000000       0.16666667       0.00000000 </v>
   <v>       0.16666667       0.16666667       0.00000000 </v>
   <v>       0.33333333       0.16666667       0.00000000 </v>
   <v>       0.50000000       0.16666667       0.00000000 </v>
   <v>      -0.33333333       0.16666667      -0.00000000 </v>
   <v>      -0.16666667       0.16666667      -0.00000000 </v>
   <v>       0.00000000       0.33333333       0.00000000 </v>
   <v>       0.16666667       0.33333333       0.00000000 </v>
   <v>       0.33333333       0.33333333       0.00000000 </v>
   <v>       0.50000000       0.33333333       0.00000000 </v>
   <v>      -0.33333333       0.33333333      -0.00000000 </v>
   <v>      -0.16666667       0.33333333       0.00000000 </v>
   <v>       0.00000000       0.50000000       0.00000000 </v>
   <v>       0.16666667       0.50000000       0.00000000 </v>
   <v>       0.33333333       0.50000000       0.00000000 </v>
   <v>       0.50000000       0.50000000       0.00000000 </v>
   <v>      -0.33333333       0.50000000       0.00000000 </v>
   <v>      -0.16666667       0.50000000       0.00000000 </v>
   <v>       0.00000000      -0.33333333      -0.00000000 </v>
   <v>       0.16666667      -0.33333333      -0.00000000 </v>
   <v>       0.33333333      -0.33333333       0.00000000 </v>
   <v>       0.50000000      -0.33333333       0.00000000 </v>
   <v>      -0.33333333      -0.33333333      -0.00000000 </v>
   <v>      -0.16666667      -0.33333333      -0.00000000 </v>
   <v>       0.00000000      -0.16666667      -0.00000000 </v>
   <v>       0.16666667      -0.16666667       0.00000000 </v>
   <v>       0.33333333      -0.16666667       0.00000000 </v>
   <v>       0.50000000      -0.16666667       0.00000000 </v>
   <v>      -0.33333333      -0.16666667      -0.00000000 </v>
   <v>      -0.16666667      -0.16666667      -0.00000000 </v>
   <v>       0.00000000       0.00000000       0.16666667 </v>
   <v>       0.16666667       0.00000000       0.16666667 </v>
   <v>       0.33333333      -0.00000000       0.16666667 </v>
   <v>       0.50000000       0.00000000       0.16666667 </v>
   <v>      -0.33333333       0.00000000       0.16666667 </v>
   <v>      -0.16666667       0.00000000       0.16666667 </v>
   <v>       0.00000000       0.16666667       0.16666667 </v>
   <v>       0.16666667       0.16666667       0.16666667 </v>
   <v>       0.33333333       0.16666667       0.16666667 </v>
   <v>       0.50000000       0.16666667       0.16666667 </v>
   <v>      -0.33333333       0.16666667       0.16666667 </v>
   <v>      -0.16666667       0.16666667       0.16666667 </v>
   <v>       0.00000000       0.33333333       0.16666667 </v>
   <v>       0.16666667       0.33333333       0.16666667 </v>
   <v>       0.33333333       0.33333333       0.16666667 </v>
   <v>       0.50000000       0.33333333       0.16666667 </v>
   <v>      -0.33333333       0.33333333       0.16666667 </v>
   <v>      -0.16666667       0.33333333       0.16666667 </v>
   <v>       0.00000000       0.50000000       0.16666667 </v>
   <v>       0.16666667       0.50000000       0.16666667 </v>
   <v>       0.33333333       0.50000000       0.16666667 </v>
   <v>       0.50000000       0.50000000       0.16666667 </v>
   <v>      -0.33333333       0.50000000       0.16666667 </v>
   <v>      -0.16666667       0.50000000       0.16666667 </v>
   <v>       0.00000000      -0.33333333       0.16666667 </v>
   <v>       0.16666667      -0.33333333       0.16666667 </v>
   <v>       0.33333333      -0.33333333       0.16666667 </v>
   <v>       0.50000000      -0.33333333       0.16666667 </v>
   <v>      -0.33333333      -0.33333333       0.16666667 </v>
   <v>      -0.16666667      -0.33333333       0.16666667 </v>
   <v>       0.00000000      -0.16666667       0.16666667 </v>
   <v>       0.16666667      -0.16666667       0.16666667 </v>
   <v>       0.33333333      -0.16666667       0.16666667 </v>
   <v>       0.50000000      -0.16666667       0.16666667 </v>
   <v>      -0.33333333      -0.16666667       0.16666667 </v>
   <v>      -0.16666667      -0.16666667       0.16666667 </v>
   <v>       0.00000000       0.00000000       0.33333333 </v>
   <v>       0.16666667       0.00000000       0.33333333 </v>
   <v>       0.33333333      -0.00000000       0.33333333 </v>
   <v>       0.50000000       0.00000000       0.33333333 </v>
   <v>      -0.33333333       0.00000000       0.33333333 </v>
   <v>      -0.16666667       0.00000000       0.33333333 </v>
   <v>       0.00000000       0.16666667       0.33333333 </v>
   <v>       0.16666667       0.16666667       0.33333333 </v>
   <v>       0.33333333       0.16666667       0.33333333 </v>
   <v>       0.50000000       0.16666667       0.33333333 </v>
   <v>      -0.33333333       0.16666667       0.33333333 </v>
   <v>      -0.16666667       0.16666667       0.33333333 </v>
   <v>       0.00000000       0.33333333       0.33333333 </v>
   <v>       0.16666667       0.33333333       0.33333333 </v>
   <v>       0.33333333       0.33333333       0.33333333 </v>
   <v>       0.50000000       0.33333333       0.33333333 </v>
   <v>      -0.33333333       0.33333333       0.33333333 </v>
   <v>      -0.16666667       0.33333333       0.33333333 </v>
   <v>       0.00000000       0.50000000       0.33333333 </v>
   <v>       0.16666667       0.50000000       0.33333333 </v>
   <v>       0.33333333       0.50000000       0.33333333 </v>
   <v>       0.50000000       0.50000000       0.33333333 </v>
   <v>      -0.33333333       0.50000000       0.33333333 </v>
   <v>      -0.16666667       0.50000000       0.33333333 </v>
   <v>       0.00000000      -0.33333333       0.33333333 </v>
   <v>       0.16666667      -0.33333333       0.33333333 </v>
   <v>       0.33333333      -0.33333333       0.33333333 </v>
   <v>       0.50000000      -0.33333333       0.33333333 </v>
   <v>      -0.33333333      -0.33333333       0.33333333 </v>
   <v>      -0.16666667      -0.33333333       0.33333333 </v>
   <v>       0.00000000      -0.16666667       0.33333333 </v>
   <v>       0.16666667      -0.16666667       0.33333333 </v>
   <v>       0.33333333      -0.16666667       0.33333333 </v>
   <v>       0.50000000      -0.16666667       0.33333333 </v>
   <v>      -0.33333333      -0.16666667       0.33333333 </v>
   <v>      -0.16666667      -0.16666667       0.33333333 </v>
   <v>       0.00000000       0.00000000       0.50000000 </v>
   <v>       0.16666667       0.00000000       0.50000000 </v>
   <v>       0.33333333      -0.00000000       0.50000000 </v>
   <v>       0.50000000       0.00000000       0.50000000 </v>
   <v>      -0.33333333       0.00000000       0.50000000 </v>
   <v>      -0.16666667       0.00000000       0.50000000 </v>
   <v>       0.00000000       0.16666667       0.50000000 </v>
   <v>       0.16666667       0.16666667       0.50000000 </v>
   <v>       0.33333333       0.16666667       0.50000000 </v>
   <v>       0.50000000       0.16666667       0.50000000 </v>
   <v>      -0.33333333       0.16666667       0.50000000 </v>
   <v>      -0.16666667       0.16666667       0.50000000 </v>
   <v>       0.00000000       0.33333333       0.50000000 </v>
   <v>       0.16666667       0.33333333       0.50000000 </v>
   <v>       0.33333333       0.33333333       0.50000000 </v>
   <v>       0.50000000       0.33333333       0.50000000 </v>
   <v>      -0.33333333       0.33333333       0.50000000 </v>
   <v>      -0.16666667       0.33333333       0.50000000 </v>
   <v>       0.00000000       0.50000000       0.50000000 </v>
   <v>       0.16666667       0.50000000       0.50000000 </v>
   <v>       0.33333333       0.50000000       0.50000000 </v>
   <v>       0.50000000       0.50000000       0.50000000 </v>
   <v>      -0.33333333       0.50000000       0.50000000 </v>
   <v>      -0.16666667       0.50000000       0.50000000 </v>
   <v>       0.00000000      -0.33333333       0.50000000 </v>
   <v>       0.16666667      -0.33333333       0.50000000 </v>
   <v>       0.33333333      -0.33333333       0.50000000 </v>
   <v>       0.50000000      -0.33333333       0.50000000 </v>
   <v>      -0.33333333      -0.33333333       0.50000000 </v>
   <v>      -0.16666667      -0.33333333       0.50000000 </v>
   <v>       0.00000000      -0.16666667       0.50000000 </v>
   <v>       0.16666667      -0.16666667       0.50000000 </v>
   <v>       0.33333333      -0.16666667       0.50000000 </v>
   <v>       0.50000000      -0.16666667       0.50000000 </v>
   <v>      -0.33333333      -0.16666667       0.50000000 </v>
   <v>      -0.16666667      -0.16666667       0.50000000 </v>
   <v>       0.00000000       0.00000000      -0.33333333 </v>
   <v>       0.16666667       0.00000000      -0.33333333 </v>
   <v>       0.33333333      -0.00000000      -0.33333333 </v>
   <v>       0.50000000       0.00000000      -0.33333333 </v>
   <v>      -0.33333333       0.00000000      -0.33333333 </v>
   <v>      -0.16666667       0.00000000      -0.33333333 </v>
   <v>       0.00000000       0.16666667      -0.33333333 </v>
   <v>       0.16666667       0.16666667      -0.33333333 </v>
   <v>       0.33333333       0.16666667      -0.33333333 </v>
   <v>       0.50000000       0.16666667      -0.33333333 </v>
   <v>      -0.33333333       0.16666667      -0.33333333 </v>
   <v>      -0.16666667       0.16666667      -0.33333333 </v>
   <v>       0.00000000       0.33333333      -0.33333333 </v>
   <v>       0.16666667       0.33333333      -0.33333333 </v>
   <v>       0.33333333       0.33333333      -0.33333333 </v>
   <v>       0.50000000       0.33333333      -0.33333333 </v>
   <v>      -0.33333333       0.33333333      -0.33333333 </v>
   <v>      -0.16666667       0.33333333      -0.33333333 </v>
   <v>       0.00000000       0.50000000      -0.33333333 </v>
   <v>       0.16666667       0.50000000      -0.33333333 </v>
   <v>       0.33333333       0.50000000      -0.33333333 </v>
   <v>       0.50000000       0.50000000      -0.33333333 </v>
   <v>      -0.33333333       0.50000000      -0.33333333 </v>
   <v>      -0.16666667       0.50000000      -0.33333333 </v>
   <v>       0.00000000      -0.33333333      -0.33333333 </v>
   <v>       0.16666667      -0.33333333      -0.33333333 </v>
   <v>       0.33333333      -0.33333333      -0.33333333 </v>
   <v>       0.50000000      -0.33333333      -0.33333333 </v>
   <v>      -0.33333333      -0.33333333      -0.33333333 </v>
   <v>      -0.16666667      -0.33333333      -0.33333333 </v>
   <v>       0.00000000      -0.16666667      -0.33333333 </v>
   <v>       0.16666667      -0.16666667      -0.33333333 </v>
   <v>       0.33333333      -0.16666667      -0.33333333 </v>
   <v>       0.50000000      -0.16666667      -0.33333333 </v>
   <v>      -0.33333333      -0.16666667      -0.33333333 </v>
   <v>      -0.16666667      -0.16666667      -0.33333333 </v>
   <v>       0.00000000       0.00000000      -0.16666667 </v>
   <v>       0.16666667       0.00000000      -0.16666667 </v>
   <v>       0.33333333      -0.00000000      -0.16666667 </v>
   <v>       0.50000000       0.00000000      -0.16666667 </v>
   <v>      -0.33333333       0.00000000      -0.16666667 </v>
   <v>      -0.16666667       0.00000000      -0.16666667 </v>
   <v>       0.00000000       0.16666667      -0.16666667 </v>
   <v>       0.16666667       0.16666667      -0.16666667 </v>
   <v>       0.33333333       0.16666667      -0.16666667 </v>
   <v>       0.50000000       0.16666667      -0.16666667 </v>
   <v>      -0.33333333       0.16666667      -0.16666667 </v>
   <v>      -0.16666667       0.16666667      -0.16666667 </v>
   <v>       0.00000000       0.33333333      -0.16666667 </v>
   <v>       0.16666667       0.33333333      -0.16666667 </v>
   <v>       0.33333333       0.33333333      -0.16666667 </v>
   <v>       0.50000000       0.33333333      -0.16666667 </v>
   <v>      -0.33333333       0.33333333      -0.16666667 </v>
   <v>      -0.16666667       0.33333333      -0.16666667 </v>
   <v>       0.00000000       0.50000000      -0.16666667 </v>
   <v>       0.16666667       0.50000000      -0.16666667 </v>
   <v>       0.33333333       0.50000000      -0.16666667 </v>
   <v>       0.50000000       0.50000000      -0.16666667 </v>
   <v>      -0.33333333       0.50000000      -0.16666667 </v>
   <v>      -0.16666667       0.50000000      -0.16666667 </v>
   <v>       0.00000000      -0.33333333      -0.16666667 </v>
   <v>       0.16666667      -0.33333333      -0.16666667 </v>
   <v>       0.33333333      -0.33333333      -0.16666667 </v>
   <v>       0.50000000      -0.33333333      -0.16666667 </v>
   <v>      -0.33333333      -0.33333333      -0.16666667 </v>
   <v>      -0.16666667      -0.33333333      -0.16666667 </v>
   <v>       0.00000000      -0.16666667      -0.16666667 </v>
   <v>       0.16666667      -0.16666667      -0.16666667 </v>
   <v>       0.33333333      -0.16666667      -0.16666667 </v>
   <v>       0.50000000      -0.16666667      -0.16666667 </v>
   <v>      -0.33333333      -0.16666667      -0.16666667 </v>
   <v>      -0.16666667      -0.16666667      -0.16666667 </v>
  </varray>
  <varray name="weights" >
   <v>       0.00462963 </v>
   <v>       0.00462963 </v>
   <v>       0.00462963 </v>
   <v>       0.00462963 </v>
   <v>       0.00462963 </v>
   <v>       0.00462963 </v>
   <v>       0.00462963 </v>
   <v>       0.00462963 </v>
   <v>       0.00462963 </v>
   <v>       0.00462963 </v>
   <v>       0.00462963 </v>
   <v>       0.00462963 </v>
   <v>       0.00462963 </v>
   <v>       0.00462963 </v>
   <v>       0.00462963 </v>
   <v>       0.00462963 </v>
   <v>       0.00462963 </v>
   <v>       0.00462963 </v>
   <v>       0.00462963 </v>
   <v>       0.00462963 </v>
   <v>       0.00462963 </v>
   <v>       0.00462963 </v>
   <v>       0.00462963 </v>
   <v>       0.00462963 </v>
   <v>       0.00462963 </v>
   <v>       0.00462963 </v>
   <v>       0.00462963 </v>
   <v>       0.00462963 </v>
   <v>       0.00462963 </v>
   <v>       0.00462963 </v>
   <v>       0.00462963 </v>
   <v>       0.00462963 </v>
   <v>       0.00462963 </v>
   <v>       0.00462963 </v>
   <v>       0.00462963 </v>
   <v>       0.00462963 </v>
   <v>       0.00462963 </v>
   <v>       0.00462963 </v>
   <v>       0.00462963 </v>
   <v>       0.00462963 </v>
   <v>       0.00462963 </v>
   <v>       0.00462963 </v>
   <v>       0.00462963 </v>
   <v>       0.00462963 </v>
   <v>       0.00462963 </v>
   <v>       0.00462963 </v>
   <v>       0.00462963 </v>
   <v>       0.00462963 </v>
   <v>       0.00462963 </v>
   <v>       0.00462963 </v>
   <v>       0.00462963 </v>
   <v>       0.00462963 </v>
   <v>       0.00462963 </v>
   <v>       0.00462963 </v>
   <v>       0.00462963 </v>
   <v>       0.00462963 </v>
   <v>       0.00462963 </v>
   <v>       0.00462963 </v>
   <v>       0.00462963 </v>
   <v>       0.00462963 </v>
   <v>       0.00462963 </v>
   <v>       0.00462963 </v>
   <v>       0.00462963 </v>
   <v>       0.00462963 </v>
   <v>       0.00462963 </v>
   <v>       0.00462963 </v>
   <v>       0.00462963 </v>
   <v>       0.00462963 </v>
   <v>       0.00462963 </v>
   <v>       0.00462963 </v>
   <v>       0.00462963 </v>
   <v>       0.00462963 </v>
   <v>       0.00462963 </v>
   <v>       0.00462963 </v>
   <v>       0.00462963 </v>
   <v>       0.00462963 </v>
   <v>       0.00462963 </v>
   <v>       0.00462963 </v>
   <v>       0.00462963 </v>
   <v>       0.00462963 </v>
   <v>       0.00462963 </v>
   <v>       0.00462963 </v>
   <v>       0.00462963 </v>
   <v>       0.00462963 </v>
   <v>       0.00462963 </v>
   <v>       0.00462963 </v>
   <v>       0.00462963 </v>
   <v>       0.00462963 </v>
   <v>       0.00462963 </v>
   <v>       0.00462963 </v>
   <v>       0.00462963 </v>
   <v>       0.00462963 </v>
   <v>       0.00462963 </v>
   <v>       0.00462963 </v>
   <v>       0.00462963 </v>
   <v>       0.00462963 </v>
   <v>       0.00462963 </v>
   <v>       0.00462963 </v>
   <v>       0.00462963 </v>
   <v>       0.00462963 </v>
   <v>       0.00462963 </v>
   <v>       0.00462963 </v>
   <v>       0.00462963 </v>
   <v>       0.00462963 </v>
   <v>       0.00462963 </v>
   <v>       0.00462963 </v>
   <v>       0.00462963 </v>
   <v>       0.00462963 </v>
   <v>       0.00462963 </v>
   <v>       0.00462963 </v>
   <v>       0.00462963 </v>
   <v>       0.00462963 </v>
   <v>       0.00462963 </v>
   <v>       0.00462963 </v>
   <v>       0.00462963 </v>
   <v>       0.00462963 </v>
   <v>       0.00462963 </v>
   <v>       0.00462963 </v>
   <v>       0.00462963 </v>
   <v>       0.00462963 </v>
   <v>       0.00462963 </v>
   <v>       0.00462963 </v>
   <v>       0.00462963 </v>
   <v>       0.00462963 </v>
   <v>       0.00462963 </v>
   <v>       0.00462963 </v>
   <v>       0.00462963 </v>
   <v>       0.00462963 </v>
   <v>       0.00462963 </v>
   <v>       0.00462963 </v>
   <v>       0.00462963 </v>
   <v>       0.00462963 </v>
   <v>       0.00462963 </v>
   <v>       0.00462963 </v>
   <v>       0.00462963 </v>
   <v>       0.00462963 </v>
   <v>       0.00462963 </v>
   <v>       0.00462963 </v>
   <v>       0.00462963 </v>
   <v>       0.00462963 </v>
   <v>       0.00462963 </v>
   <v>       0.00462963 </v>
   <v>       0.00462963 </v>
   <v>       0.00462963 </v>
   <v>       0.00462963 </v>
   <v>       0.00462963 </v>
   <v>       0.00462963 </v>
   <v>       0.00462963 </v>
   <v>       0.00462963 </v>
   <v>       0.00462963 </v>
   <v>       0.00462963 </v>
   <v>       0.00462963 </v>
   <v>       0.00462963 </v>
   <v>       0.00462963 </v>
   <v>       0.00462963 </v>
   <v>       0.00462963 </v>
   <v>       0.00462963 </v>
   <v>       0.00462963 </v>
   <v>       0.00462963 </v>
   <v>       0.00462963 </v>
   <v>       0.00462963 </v>
   <v>       0.00462963 </v>
   <v>       0.00462963 </v>
   <v>       0.00462963 </v>
   <v>       0.00462963 </v>
   <v>       0.00462963 </v>
   <v>       0.00462963 </v>
   <v>       0.00462963 </v>
   <v>       0.00462963 </v>
   <v>       0.00462963 </v>
   <v>       0.00462963 </v>
   <v>       0.00462963 </v>
   <v>       0.00462963 </v>
   <v>       0.00462963 </v>
   <v>       0.00462963 </v>
   <v>       0.00462963 </v>
   <v>       0.00462963 </v>
   <v>       0.00462963 </v>
   <v>       0.00462963 </v>
   <v>       0.00462963 </v>
   <v>       0.00462963 </v>
   <v>       0.00462963 </v>
   <v>       0.00462963 </v>
   <v>       0.00462963 </v>
   <v>       0.00462963 </v>
   <v>       0.00462963 </v>
   <v>       0.00462963 </v>
   <v>       0.00462963 </v>
   <v>       0.00462963 </v>
   <v>       0.00462963 </v>
   <v>       0.00462963 </v>
   <v>       0.00462963 </v>
   <v>       0.00462963 </v>
   <v>       0.00462963 </v>
   <v>       0.00462963 </v>
   <v>       0.00462963 </v>
   <v>       0.00462963 </v>
   <v>       0.00462963 </v>
   <v>       0.00462963 </v>
   <v>       0.00462963 </v>
   <v>       0.00462963 </v>
   <v>       0.00462963 </v>
   <v>       0.00462963 </v>
   <v>       0.00462963 </v>
   <v>       0.00462963 </v>
   <v>       0.00462963 </v>
   <v>       0.00462963 </v>
   <v>       0.00462963 </v>
   <v>       0.00462963 </v>
   <v>       0.00462963 </v>
   <v>       0.00462963 </v>
   <v>       0.00462963 </v>
   <v>       0.00462963 </v>
   <v>       0.00462963 </v>
   <v>       0.00462963 </v>
   <v>       0.00462963 </v>
  </varray>
 </kpoints>
 <parameters>
  <separator name="general" >
   <i type="string" name="SYSTEM">Og_FCC</i>
   <i type="logical" name="LCOMPAT"> F  </i>
  </separator>
  <separator name="electronic" >
   <i type="string" name="PREC">accura</i>
   <i name="ENMAX">    300.00000000</i>
   <i name="ENAUG">    755.75300000</i>
   <i name="EDIFF">      0.00000001</i>
   <i type="int" name="IALGO">    38</i>
   <i type="int" name="IWAVPR">    10</i>
   <i type="int" name="NBANDS">   128</i>
   <i name="NELECT">      8.00000000</i>
   <i type="int" name="TURBO">     0</i>
   <i type="int" name="IRESTART">     0</i>
   <i type="int" name="NREBOOT">     0</i>
   <i type="int" name="NMIN">     0</i>
   <i name="EREF">      0.00000000</i>
   <separator name="electronic smearing" >
    <i type="int" name="ISMEAR">     0</i>
    <i name="SIGMA">      0.00100000</i>
    <i name="KSPACING">      0.50000000</i>
    <i type="logical" name="KGAMMA"> T  </i>
   </separator>
   <separator name="electronic projectors" >
    <i type="logical" name="LREAL"> F  </i>
    <v name="ROPT">      0.00000000</v>
    <i type="int" name="LMAXPAW">  -100</i>
    <i type="int" name="LMAXMIX">     2</i>
    <i type="logical" name="NLSPLINE"> F  </i>
   </separator>
   <separator name="electronic startup" >
    <i type="int" name="ISTART">     1</i>
    <i type="int" name="ICHARG">     0</i>
    <i type="int" name="INIWAV">     1</i>
   </separator>
   <separator name="electronic spin" >
    <i type="int" name="ISPIN">     1</i>
    <i type="logical" name="LNONCOLLINEAR"> T  </i>
    <v name="MAGMOM">      1.00000000      1.00000000      1.00000000</v>
    <i name="NUPDOWN">     -1.00000000</i>
    <i type="logical" name="LSORBIT"> T  </i>
    <v name="SAXIS">      0.00000000      0.00000000      1.00000000</v>
    <i type="logical" name="LSPIRAL"> F  </i>
    <v name="QSPIRAL">      0.00000000      0.00000000      0.00000000</v>
    <i type="logical" name="LZEROZ"> F  </i>
   </separator>
   <separator name="electronic exchange-correlation" >
    <i type="logical" name="LASPH"> F  </i>
    <i type="logical" name="LMETAGGA"> F  </i>
   </separator>
   <separator name="electronic convergence" >
    <i type="int" name="NELM">     1</i>
    <i type="int" name="NELMDL">     0</i>
    <i type="int" name="NELMIN">     2</i>
    <i name="ENINI">    300.00000000</i>
    <separator name="electronic convergence detail" >
     <i type="logical" name="LDIAG"> T  </i>
     <i type="logical" name="LSUBROT"> F  </i>
     <i name="WEIMIN">      0.00000000</i>
     <i name="EBREAK">      0.00000000</i>
     <i name="DEPER">      0.30000000</i>
     <i type="int" name="NRMM">     4</i>
     <i name="TIME">      0.40000000</i>
    </separator>
   </separator>
   <separator name="electronic mixer" >
    <i name="AMIX">      0.40000000</i>
    <i name="BMIX">      1.00000000</i>
    <i name="AMIN">      0.10000000</i>
    <i name="AMIX_MAG">      1.60000000</i>
    <i name="BMIX_MAG">      1.00000000</i>
    <separator name="electronic mixer details" >
     <i type="int" name="IMIX">     1</i>
     <i type="logical" name="MIXFIRST"> F  </i>
     <i type="int" name="MAXMIX">    50</i>
     <i name="WC">    100.00000000</i>
     <i type="int" name="INIMIX">     1</i>
     <i type="int" name="MIXPRE">     1</i>
     <i type="int" name="MREMOVE">     5</i>
    </separator>
   </separator>
   <separator name="electronic dipolcorrection" >
    <i type="logical" name="LDIPOL"> F  </i>
    <i type="logical" name="LMONO"> F  </i>
    <i type="int" name="IDIPOL">     0</i>
    <i name="EPSILON">      1.00000000</i>
    <v name="DIPOL">   -100.00000000   -100.00000000   -100.00000000</v>
    <i name="EFIELD">      0.00000000</i>
   </separator>
  </separator>
  <separator name="grids" >
   <i type="int" name="NGX">    18</i>
   <i type="int" name="NGY">    18</i>
   <i type="int" name="NGZ">    18</i>
   <i type="int" name="NGXF">    36</i>
   <i type="int" name="NGYF">    36</i>
   <i type="int" name="NGZF">    36</i>
   <i type="logical" name="ADDGRID"> T  </i>
  </separator>
  <separator name="ionic" >
   <i type="int" name="NSW">     1</i>
   <i type="int" name="IBRION">    -1</i>
   <i type="int" name="MDALGO">     0</i>
   <i type="int" name="ISIF">     3</i>
   <i name="PSTRESS">      0.00000000</i>
   <i name="EDIFFG">      0.00001000</i>
   <i type="int" name="NFREE">     5</i>
   <i name="POTIM">      0.10000000</i>
   <i name="SMASS">     -3.00000000</i>
   <i name="SCALEE">      1.00000000</i>
  </separator>
  <separator name="ionic md" >
   <i name="TEBEG">      0.00010000</i>
   <i name="TEEND">      0.00010000</i>
   <i type="int" name="NBLOCK">     1</i>
   <i type="int" name="KBLOCK">     1</i>
   <i type="int" name="NPACO">   256</i>
   <i name="APACO">     16.00000000</i>
  </separator>
  <separator name="symmetry" >
   <i type="int" name="ISYM">     0</i>
   <i name="SYMPREC">      0.00000010</i>
  </separator>
  <separator name="dos" >
   <i type="int" name="LORBIT">     0</i>
   <v name="RWIGS">     -1.00000000</v>
   <i type="int" name="NEDOS">   301</i>
   <i name="EMIN">     10.00000000</i>
   <i name="EMAX">    -10.00000000</i>
   <i name="EFERMI">      0.00000000</i>
  </separator>
  <separator name="writing" >
   <i type="int" name="NWRITE">     1</i>
   <i type="logical" name="LWAVE"> T  </i>
   <i type="logical" name="LDOWNSAMPLE"> F  </i>
   <i type="logical" name="LCHARG"> F  </i>
   <i type="logical" name="LPARD"> F  </i>
   <i type="logical" name="LVTOT"> F  </i>
   <i type="logical" name="LVHAR"> F  </i>
   <i type="logical" name="LELF"> F  </i>
   <i type="logical" name="LOPTICS"> F  </i>
   <v name="STM">      0.00000000      0.00000000      0.00000000      0.00000000      0.00000000      0.00000000      0.00000000</v>
  </separator>
  <separator name="performance" >
   <i type="int" name="NPAR">     4</i>
   <i type="int" name="NSIM">     4</i>
   <i type="int" name="NBLK">    -1</i>
   <i type="logical" name="LPLANE"> T  </i>
   <i type="logical" name="LSCALAPACK"> T  </i>
   <i type="logical" name="LSCAAWARE"> T  </i>
   <i type="logical" name="LSCALU"> F  </i>
   <i type="logical" name="LASYNC"> F  </i>
   <i type="logical" name="LORBITALREAL"> F  </i>
  </separator>
  <separator name="miscellaneous" >
   <i type="int" name="IDIOT">     3</i>
   <i type="int" name="ISPECIAL">     0</i>
   <i type="logical" name="LMUSIC"> F  </i>
   <v name="POMASS">     20.18000000</v>
   <v name="DARWINR">      0.00000000</v>
   <v name="DARWINV">      1.00000000</v>
   <i type="logical" name="LCORR"> T  </i>
  </separator>
  <i type="logical" name="GGA_COMPAT"> F  </i>
  <i type="logical" name="LBERRY"> F  </i>
  <i type="int" name="ICORELEVEL">     0</i>
  <i type="logical" name="LDAU"> F  </i>
  <i type="int" name="I_CONSTRAINED_M">     0</i>
  <separator name="electronic exchange-correlation" >
   <i type="string" name="GGA">--</i>
   <i type="int" name="VOSKOWN">     0</i>
   <i type="logical" name="LHFCALC"> T  </i>
   <i type="string" name="PRECFOCK">normal</i>
   <i type="logical" name="LSYMGRAD"> F  </i>
   <i type="logical" name="LHFONE"> F  </i>
   <i type="logical" name="LRHFCALC"> F  </i>
   <i type="logical" name="LTHOMAS"> F  </i>
   <i type="logical" name="LMODELHF"> F  </i>
   <i name="ENCUT4O">     -1.00000000</i>
   <i type="int" name="EXXOEP">     0</i>
   <i type="int" name="FOURORBIT">     0</i>
   <i name="AEXX">      1.00000000</i>
   <i name="HFALPHA">     -1.00000000</i>
   <i name="MCALPHA">      0.00000000</i>
   <i name="ALDAX">      0.00000000</i>
   <i name="AGGAX">      0.00000000</i>
   <i name="ALDAC">      0.00000000</i>
   <i name="AGGAC">      0.00000000</i>
   <i type="int" name="NKREDX">     1</i>
   <i type="int" name="NKREDY">     1</i>
   <i type="int" name="NKREDZ">     1</i>
   <i type="logical" name="SHIFTRED"> F  </i>
   <i type="logical" name="ODDONLY"> F  </i>
   <i type="logical" name="EVENONLY"> F  </i>
   <i type="int" name="LMAXFOCK">     4</i>
   <i type="int" name="NMAXFOCKAE">     1</i>
   <i type="logical" name="LFOCKAEDFT"> F  </i>
   <i name="HFSCREEN">      0.00000000</i>
   <i name="HFSCREENC">      0.00000000</i>
   <i type="int" name="NBANDSGWLOW">     1</i>
  </separator>
  <separator name="vdW DFT" >
   <i type="logical" name="LUSE_VDW"> F  </i>
   <i name="Zab_VDW">     -0.84910000</i>
   <i name="PARAM1">      0.12340000</i>
   <i name="PARAM2">      1.00000000</i>
   <i name="PARAM3">      0.00000000</i>
  </separator>
  <separator name="model GW" >
   <i type="int" name="MODEL_GW">     0</i>
   <i name="MODEL_EPS0">     11.16235683</i>
   <i name="MODEL_ALPHA">      1.00000000</i>
  </separator>
  <separator name="linear response parameters" >
   <i type="logical" name="LEPSILON"> F  </i>
   <i type="logical" name="LRPA"> F  </i>
   <i type="logical" name="LNABLA"> F  </i>
   <i type="logical" name="LVEL"> F  </i>
   <i type="int" name="KINTER">     0</i>
   <i name="CSHIFT">      0.10000000</i>
   <i name="OMEGAMAX">     -1.00000000</i>
   <i name="DEG_THRESHOLD">      0.00200000</i>
   <i name="RTIME">     -0.10000000</i>
   <i name="WPLASMAI">      0.00000000</i>
   <v name="DFIELD">      0.00000000      0.00000000      0.00000000</v>
   <v name="WPLASMA">      0.00000000      0.00000000      0.00000000      0.00000000      0.00000000      0.00000000      0.00000000      0.00000000      0.00000000</v>
  </separator>
  <separator name="orbital magnetization" >
   <i type="logical" name="NUCIND"> F  </i>
   <v name="MAGPOS">      0.00000000      0.00000000      0.00000000</v>
   <i type="logical" name="LNICSALL"> T  </i>
   <i type="logical" name="ORBITALMAG"> F  </i>
   <i type="logical" name="LMAGBLOCH"> F  </i>
   <i type="logical" name="LCHIMAG"> F  </i>
   <i type="logical" name="LGAUGE"> T  </i>
   <i type="int" name="MAGATOM">     0</i>
   <v name="MAGDIPOL">      0.00000000      0.00000000      0.00000000</v>
   <v name="AVECCONST">      0.00000000      0.00000000      0.00000000</v>
  </separator>
  <separator name="response functions" >
   <i type="logical" name="LADDER"> F  </i>
   <i type="logical" name="LRPAFORCE"> F  </i>
   <i type="logical" name="LFXC"> F  </i>
   <i type="logical" name="LHARTREE"> T  </i>
   <i type="int" name="IBSE">     0</i>
   <v type="int" name="KPOINT">    -1     0     0     0</v>
   <i type="logical" name="LTCTE"> F  </i>
   <i type="logical" name="LTETE"> F  </i>
   <i type="logical" name="LTRIPLET"> F  </i>
   <i type="logical" name="LFXCEPS"> F  </i>
   <i type="logical" name="LFXHEG"> F  </i>
   <i type="int" name="NATURALO">     2</i>
   <i type="logical" name="L2ORDER"> F  </i>
   <i type="logical" name="LMP2LT"> F  </i>
   <i type="logical" name="LUSEW"> F  </i>
   <i name="ENCUTGW">    200.00000000</i>
   <i name="ENCUTGWSOFT">    200.00000000</i>
   <i name="ENCUTLF">     -1.00000000</i>
   <i type="int" name="LMAXMP2">    -1</i>
   <i name="SCISSOR">      0.00000000</i>
   <i type="int" name="NOMEGA">    50</i>
   <i type="int" name="NOMEGAR">    50</i>
   <i type="int" name="NBANDSGW">    -1</i>
   <i type="int" name="NBANDSO">    -1</i>
   <i type="int" name="NBANDSV">    -1</i>
   <i type="int" name="NELM">     1</i>
   <i type="int" name="NELMHF">     1</i>
   <i type="int" name="DIM">     3</i>
   <i type="int" name="ANTIRES">     0</i>
   <i name="OMEGAMAX">    -30.00000000</i>
   <i name="OMEGAMIN">    -30.00000000</i>
   <i name="OMEGATL">   -200.00000000</i>
   <i type="int" name="OMEGAGRID">     0</i>
   <i name="CSHIFT">     -0.10000000</i>
   <i type="logical" name="SELFENERGY"> F  </i>
   <i type="logical" name="LSPECTRAL"> T  </i>
   <i type="logical" name="LSPECTRALGW"> F  </i>
   <i type="logical" name="LSINGLES"> F  </i>
   <i type="logical" name="LFERMIGW"> F  </i>
   <i type="logical" name="ODDONLYGW"> F  </i>
   <i type="logical" name="EVENONLYGW"> F  </i>
   <i type="int" name="NKREDLFX">     1</i>
   <i type="int" name="NKREDLFY">     1</i>
   <i type="int" name="NKREDLFZ">     1</i>
   <i type="int" name="MAXMEM">  2800</i>
   <i type="int" name="TELESCOPE">     0</i>
   <i type="int" name="TAUPAR">     1</i>
   <i type="int" name="OMEGAPAR">    -1</i>
   <i name="LAMBDA">      1.00000000</i>
  </separator>
  <separator name="External order field" >
   <i name="OFIELD_KAPPA">      0.00000000</i>
   <v name="OFIELD_K">      0.00000000      0.00000000      0.00000000</v>
   <i name="OFIELD_Q6_NEAR">      0.00000000</i>
   <i name="OFIELD_Q6_FAR">      0.00000000</i>
   <i name="OFIELD_A">      0.00000000</i>
  </separator>
 </parameters>
 <atominfo>
  <atoms>       1 </atoms>
  <types>       1 </types>
  <array name="atoms" >
   <dimension dim="1">ion</dimension>
   <field type="string">element</field>
   <field type="int">atomtype</field>
   <set>
    <rc><c>Ne</c><c>   1</c></rc>
   </set>
  </array>
  <array name="atomtypes" >
   <dimension dim="1">type</dimension>
   <field type="int">atomspertype</field>
   <field type="string">element</field>
   <field>mass</field>
   <field>valence</field>
   <field type="string">pseudopotential</field>
   <set>
    <rc><c>   1</c><c>Ne</c><c>     20.18000000</c><c>      8.00000000</c><c>  PAW_PBE Ne_GW 22Sep2014               </c></rc>
   </set>
  </array>
 </atominfo>
 <structure name="initialpos" >
  <crystal>
   <varray name="basis" >
    <v>       2.97422087       0.00000000       0.00000000 </v>
    <v>       1.48711043       2.57575083       0.00000000 </v>
    <v>       1.48711043       0.85858361       2.42844117 </v>
   </varray>
   <i name="volume">     18.60392805 </i>
   <varray name="rec_basis" >
    <v>       0.33622251      -0.19411816      -0.13726226 </v>
    <v>       0.00000000       0.38823631      -0.13726226 </v>
    <v>       0.00000000       0.00000000       0.41178679 </v>
   </varray>
  </crystal>
  <varray name="positions" >
   <v>       0.00000000       0.00000000       0.00000000 </v>
  </varray>
  <varray name="velocities" >
   <v>       0.00000000       0.00000000       0.00000000 </v>
  </varray>
 </structure>
 <kpoints>
  <generation param="Gamma">
   <v type="int" name="divisions">       6        6        6 </v>
   <v name="usershift">      0.00000000       0.00000000       0.00000000 </v>
   <v name="genvec1">      0.16666667       0.00000000      -0.00000000 </v>
   <v name="genvec2">      0.00000000       0.16666667       0.00000000 </v>
   <v name="genvec3">      0.00000000       0.00000000       0.16666667 </v>
   <v name="shift">      0.00000000       0.00000000       0.00000000 </v>
  </generation>
  <varray name="kpointlist" >
   <v>       0.00000000       0.00000000       0.00000000 </v>
   <v>       0.16666667       0.00000000       0.00000000 </v>
   <v>       0.33333333      -0.00000000       0.00000000 </v>
   <v>       0.50000000       0.00000000      -0.00000000 </v>
   <v>      -0.33333333       0.00000000       0.00000000 </v>
   <v>      -0.16666667       0.00000000      -0.00000000 </v>
   <v>       0.00000000       0.16666667       0.00000000 </v>
   <v>       0.16666667       0.16666667       0.00000000 </v>
   <v>       0.33333333       0.16666667       0.00000000 </v>
   <v>       0.50000000       0.16666667       0.00000000 </v>
   <v>      -0.33333333       0.16666667      -0.00000000 </v>
   <v>      -0.16666667       0.16666667      -0.00000000 </v>
   <v>       0.00000000       0.33333333       0.00000000 </v>
   <v>       0.16666667       0.33333333       0.00000000 </v>
   <v>       0.33333333       0.33333333       0.00000000 </v>
   <v>       0.50000000       0.33333333       0.00000000 </v>
   <v>      -0.33333333       0.33333333      -0.00000000 </v>
   <v>      -0.16666667       0.33333333       0.00000000 </v>
   <v>       0.00000000       0.50000000       0.00000000 </v>
   <v>       0.16666667       0.50000000       0.00000000 </v>
   <v>       0.33333333       0.50000000       0.00000000 </v>
   <v>       0.50000000       0.50000000       0.00000000 </v>
   <v>      -0.33333333       0.50000000       0.00000000 </v>
   <v>      -0.16666667       0.50000000       0.00000000 </v>
   <v>       0.00000000      -0.33333333      -0.00000000 </v>
   <v>       0.16666667      -0.33333333      -0.00000000 </v>
   <v>       0.33333333      -0.33333333       0.00000000 </v>
   <v>       0.50000000      -0.33333333       0.00000000 </v>
   <v>      -0.33333333      -0.33333333      -0.00000000 </v>
   <v>      -0.16666667      -0.33333333      -0.00000000 </v>
   <v>       0.00000000      -0.16666667      -0.00000000 </v>
   <v>       0.16666667      -0.16666667       0.00000000 </v>
   <v>       0.33333333      -0.16666667       0.00000000 </v>
   <v>       0.50000000      -0.16666667       0.00000000 </v>
   <v>      -0.33333333      -0.16666667      -0.00000000 </v>
   <v>      -0.16666667      -0.16666667      -0.00000000 </v>
   <v>       0.00000000       0.00000000       0.16666667 </v>
   <v>       0.16666667       0.00000000       0.16666667 </v>
   <v>       0.33333333      -0.00000000       0.16666667 </v>
   <v>       0.50000000       0.00000000       0.16666667 </v>
   <v>      -0.33333333       0.00000000       0.16666667 </v>
   <v>      -0.16666667       0.00000000       0.16666667 </v>
   <v>       0.00000000       0.16666667       0.16666667 </v>
   <v>       0.16666667       0.16666667       0.16666667 </v>
   <v>       0.33333333       0.16666667       0.16666667 </v>
   <v>       0.50000000       0.16666667       0.16666667 </v>
   <v>      -0.33333333       0.16666667       0.16666667 </v>
   <v>      -0.16666667       0.16666667       0.16666667 </v>
   <v>       0.00000000       0.33333333       0.16666667 </v>
   <v>       0.16666667       0.33333333       0.16666667 </v>
   <v>       0.33333333       0.33333333       0.16666667 </v>
   <v>       0.50000000       0.33333333       0.16666667 </v>
   <v>      -0.33333333       0.33333333       0.16666667 </v>
   <v>      -0.16666667       0.33333333       0.16666667 </v>
   <v>       0.00000000       0.50000000       0.16666667 </v>
   <v>       0.16666667       0.50000000       0.16666667 </v>
   <v>       0.33333333       0.50000000       0.16666667 </v>
   <v>       0.50000000       0.50000000       0.16666667 </v>
   <v>      -0.33333333       0.50000000       0.16666667 </v>
   <v>      -0.16666667       0.50000000       0.16666667 </v>
   <v>       0.00000000      -0.33333333       0.16666667 </v>
   <v>       0.16666667      -0.33333333       0.16666667 </v>
   <v>       0.33333333      -0.33333333       0.16666667 </v>
   <v>       0.50000000      -0.33333333       0.16666667 </v>
   <v>      -0.33333333      -0.33333333       0.16666667 </v>
   <v>      -0.16666667      -0.33333333       0.16666667 </v>
   <v>       0.00000000      -0.16666667       0.16666667 </v>
   <v>       0.16666667      -0.16666667       0.16666667 </v>
   <v>       0.33333333      -0.16666667       0.16666667 </v>
   <v>       0.50000000      -0.16666667       0.16666667 </v>
   <v>      -0.33333333      -0.16666667       0.16666667 </v>
   <v>      -0.16666667      -0.16666667       0.16666667 </v>
   <v>       0.00000000       0.00000000       0.33333333 </v>
   <v>       0.16666667       0.00000000       0.33333333 </v>
   <v>       0.33333333      -0.00000000       0.33333333 </v>
   <v>       0.50000000       0.00000000       0.33333333 </v>
   <v>      -0.33333333       0.00000000       0.33333333 </v>
   <v>      -0.16666667       0.00000000       0.33333333 </v>
   <v>       0.00000000       0.16666667       0.33333333 </v>
   <v>       0.16666667       0.16666667       0.33333333 </v>
   <v>       0.33333333       0.16666667       0.33333333 </v>
   <v>       0.50000000       0.16666667       0.33333333 </v>
   <v>      -0.33333333       0.16666667       0.33333333 </v>
   <v>      -0.16666667       0.16666667       0.33333333 </v>
   <v>       0.00000000       0.33333333       0.33333333 </v>
   <v>       0.16666667       0.33333333       0.33333333 </v>
   <v>       0.33333333       0.33333333       0.33333333 </v>
   <v>       0.50000000       0.33333333       0.33333333 </v>
   <v>      -0.33333333       0.33333333       0.33333333 </v>
   <v>      -0.16666667       0.33333333       0.33333333 </v>
   <v>       0.00000000       0.50000000       0.33333333 </v>
   <v>       0.16666667       0.50000000       0.33333333 </v>
   <v>       0.33333333       0.50000000       0.33333333 </v>
   <v>       0.50000000       0.50000000       0.33333333 </v>
   <v>      -0.33333333       0.50000000       0.33333333 </v>
   <v>      -0.16666667       0.50000000       0.33333333 </v>
   <v>       0.00000000      -0.33333333       0.33333333 </v>
   <v>       0.16666667      -0.33333333       0.33333333 </v>
   <v>       0.33333333      -0.33333333       0.33333333 </v>
   <v>       0.50000000      -0.33333333       0.33333333 </v>
   <v>      -0.33333333      -0.33333333       0.33333333 </v>
   <v>      -0.16666667      -0.33333333       0.33333333 </v>
   <v>       0.00000000      -0.16666667       0.33333333 </v>
   <v>       0.16666667      -0.16666667       0.33333333 </v>
   <v>       0.33333333      -0.16666667       0.33333333 </v>
   <v>       0.50000000      -0.16666667       0.33333333 </v>
   <v>      -0.33333333      -0.16666667       0.33333333 </v>
   <v>      -0.16666667      -0.16666667       0.33333333 </v>
   <v>       0.00000000       0.00000000       0.50000000 </v>
   <v>       0.16666667       0.00000000       0.50000000 </v>
   <v>       0.33333333      -0.00000000       0.50000000 </v>
   <v>       0.50000000       0.00000000       0.50000000 </v>
   <v>      -0.33333333       0.00000000       0.50000000 </v>
   <v>      -0.16666667       0.00000000       0.50000000 </v>
   <v>       0.00000000       0.16666667       0.50000000 </v>
   <v>       0.16666667       0.16666667       0.50000000 </v>
   <v>       0.33333333       0.16666667       0.50000000 </v>
   <v>       0.50000000       0.16666667       0.50000000 </v>
   <v>      -0.33333333       0.16666667       0.50000000 </v>
   <v>      -0.16666667       0.16666667       0.50000000 </v>
   <v>       0.00000000       0.33333333       0.50000000 </v>
   <v>       0.16666667       0.33333333       0.50000000 </v>
   <v>       0.33333333       0.33333333       0.50000000 </v>
   <v>       0.50000000       0.33333333       0.50000000 </v>
   <v>      -0.33333333       0.33333333       0.50000000 </v>
   <v>      -0.16666667       0.33333333       0.50000000 </v>
   <v>       0.00000000       0.50000000       0.50000000 </v>
   <v>       0.16666667       0.50000000       0.50000000 </v>
   <v>       0.33333333       0.50000000       0.50000000 </v>
   <v>       0.50000000       0.50000000       0.50000000 </v>
   <v>      -0.33333333       0.50000000       0.50000000 </v>
   <v>      -0.16666667       0.50000000       0.50000000 </v>
   <v>       0.00000000      -0.33333333       0.50000000 </v>
   <v>       0.16666667      -0.33333333       0.50000000 </v>
   <v>       0.33333333      -0.33333333       0.50000000 </v>
   <v>       0.50000000      -0.33333333       0.50000000 </v>
   <v>      -0.33333333      -0.33333333       0.50000000 </v>
   <v>      -0.16666667      -0.33333333       0.50000000 </v>
   <v>       0.00000000      -0.16666667       0.50000000 </v>
   <v>       0.16666667      -0.16666667       0.50000000 </v>
   <v>       0.33333333      -0.16666667       0.50000000 </v>
   <v>       0.50000000      -0.16666667       0.50000000 </v>
   <v>      -0.33333333      -0.16666667       0.50000000 </v>
   <v>      -0.16666667      -0.16666667       0.50000000 </v>
   <v>       0.00000000       0.00000000      -0.33333333 </v>
   <v>       0.16666667       0.00000000      -0.33333333 </v>
   <v>       0.33333333      -0.00000000      -0.33333333 </v>
   <v>       0.50000000       0.00000000      -0.33333333 </v>
   <v>      -0.33333333       0.00000000      -0.33333333 </v>
   <v>      -0.16666667       0.00000000      -0.33333333 </v>
   <v>       0.00000000       0.16666667      -0.33333333 </v>
   <v>       0.16666667       0.16666667      -0.33333333 </v>
   <v>       0.33333333       0.16666667      -0.33333333 </v>
   <v>       0.50000000       0.16666667      -0.33333333 </v>
   <v>      -0.33333333       0.16666667      -0.33333333 </v>
   <v>      -0.16666667       0.16666667      -0.33333333 </v>
   <v>       0.00000000       0.33333333      -0.33333333 </v>
   <v>       0.16666667       0.33333333      -0.33333333 </v>
   <v>       0.33333333       0.33333333      -0.33333333 </v>
   <v>       0.50000000       0.33333333      -0.33333333 </v>
   <v>      -0.33333333       0.33333333      -0.33333333 </v>
   <v>      -0.16666667       0.33333333      -0.33333333 </v>
   <v>       0.00000000       0.50000000      -0.33333333 </v>
   <v>       0.16666667       0.50000000      -0.33333333 </v>
   <v>       0.33333333       0.50000000      -0.33333333 </v>
   <v>       0.50000000       0.50000000      -0.33333333 </v>
   <v>      -0.33333333       0.50000000      -0.33333333 </v>
   <v>      -0.16666667       0.50000000      -0.33333333 </v>
   <v>       0.00000000      -0.33333333      -0.33333333 </v>
   <v>       0.16666667      -0.33333333      -0.33333333 </v>
   <v>       0.33333333      -0.33333333      -0.33333333 </v>
   <v>       0.50000000      -0.33333333      -0.33333333 </v>
   <v>      -0.33333333      -0.33333333      -0.33333333 </v>
   <v>      -0.16666667      -0.33333333      -0.33333333 </v>
   <v>       0.00000000      -0.16666667      -0.33333333 </v>
   <v>       0.16666667      -0.16666667      -0.33333333 </v>
   <v>       0.33333333      -0.16666667      -0.33333333 </v>
   <v>       0.50000000      -0.16666667      -0.33333333 </v>
   <v>      -0.33333333      -0.16666667      -0.33333333 </v>
   <v>      -0.16666667      -0.16666667      -0.33333333 </v>
   <v>       0.00000000       0.00000000      -0.16666667 </v>
   <v>       0.16666667       0.00000000      -0.16666667 </v>
   <v>       0.33333333      -0.00000000      -0.16666667 </v>
   <v>       0.50000000       0.00000000      -0.16666667 </v>
   <v>      -0.33333333       0.00000000      -0.16666667 </v>
   <v>      -0.16666667       0.00000000      -0.16666667 </v>
   <v>       0.00000000       0.16666667      -0.16666667 </v>
   <v>       0.16666667       0.16666667      -0.16666667 </v>
   <v>       0.33333333       0.16666667      -0.16666667 </v>
   <v>       0.50000000       0.16666667      -0.16666667 </v>
   <v>      -0.33333333       0.16666667      -0.16666667 </v>
   <v>      -0.16666667       0.16666667      -0.16666667 </v>
   <v>       0.00000000       0.33333333      -0.16666667 </v>
   <v>       0.16666667       0.33333333      -0.16666667 </v>
   <v>       0.33333333       0.33333333      -0.16666667 </v>
   <v>       0.50000000       0.33333333      -0.16666667 </v>
   <v>      -0.33333333       0.33333333      -0.16666667 </v>
   <v>      -0.16666667       0.33333333      -0.16666667 </v>
   <v>       0.00000000       0.50000000      -0.16666667 </v>
   <v>       0.16666667       0.50000000      -0.16666667 </v>
   <v>       0.33333333       0.50000000      -0.16666667 </v>
   <v>       0.50000000       0.50000000      -0.16666667 </v>
   <v>      -0.33333333       0.50000000      -0.16666667 </v>
   <v>      -0.16666667       0.50000000      -0.16666667 </v>
   <v>       0.00000000      -0.33333333      -0.16666667 </v>
   <v>       0.16666667      -0.33333333      -0.16666667 </v>
   <v>       0.33333333      -0.33333333      -0.16666667 </v>
   <v>       0.50000000      -0.33333333      -0.16666667 </v>
   <v>      -0.33333333      -0.33333333      -0.16666667 </v>
   <v>      -0.16666667      -0.33333333      -0.16666667 </v>
   <v>       0.00000000      -0.16666667      -0.16666667 </v>
   <v>       0.16666667      -0.16666667      -0.16666667 </v>
   <v>       0.33333333      -0.16666667      -0.16666667 </v>
   <v>       0.50000000      -0.16666667      -0.16666667 </v>
   <v>      -0.33333333      -0.16666667      -0.16666667 </v>
   <v>      -0.16666667      -0.16666667      -0.16666667 </v>
  </varray>
  <varray name="weights" >
   <v>       0.00462963 </v>
   <v>       0.00462963 </v>
   <v>       0.00462963 </v>
   <v>       0.00462963 </v>
   <v>       0.00462963 </v>
   <v>       0.00462963 </v>
   <v>       0.00462963 </v>
   <v>       0.00462963 </v>
   <v>       0.00462963 </v>
   <v>       0.00462963 </v>
   <v>       0.00462963 </v>
   <v>       0.00462963 </v>
   <v>       0.00462963 </v>
   <v>       0.00462963 </v>
   <v>       0.00462963 </v>
   <v>       0.00462963 </v>
   <v>       0.00462963 </v>
   <v>       0.00462963 </v>
   <v>       0.00462963 </v>
   <v>       0.00462963 </v>
   <v>       0.00462963 </v>
   <v>       0.00462963 </v>
   <v>       0.00462963 </v>
   <v>       0.00462963 </v>
   <v>       0.00462963 </v>
   <v>       0.00462963 </v>
   <v>       0.00462963 </v>
   <v>       0.00462963 </v>
   <v>       0.00462963 </v>
   <v>       0.00462963 </v>
   <v>       0.00462963 </v>
   <v>       0.00462963 </v>
   <v>       0.00462963 </v>
   <v>       0.00462963 </v>
   <v>       0.00462963 </v>
   <v>       0.00462963 </v>
   <v>       0.00462963 </v>
   <v>       0.00462963 </v>
   <v>       0.00462963 </v>
   <v>       0.00462963 </v>
   <v>       0.00462963 </v>
   <v>       0.00462963 </v>
   <v>       0.00462963 </v>
   <v>       0.00462963 </v>
   <v>       0.00462963 </v>
   <v>       0.00462963 </v>
   <v>       0.00462963 </v>
   <v>       0.00462963 </v>
   <v>       0.00462963 </v>
   <v>       0.00462963 </v>
   <v>       0.00462963 </v>
   <v>       0.00462963 </v>
   <v>       0.00462963 </v>
   <v>       0.00462963 </v>
   <v>       0.00462963 </v>
   <v>       0.00462963 </v>
   <v>       0.00462963 </v>
   <v>       0.00462963 </v>
   <v>       0.00462963 </v>
   <v>       0.00462963 </v>
   <v>       0.00462963 </v>
   <v>       0.00462963 </v>
   <v>       0.00462963 </v>
   <v>       0.00462963 </v>
   <v>       0.00462963 </v>
   <v>       0.00462963 </v>
   <v>       0.00462963 </v>
   <v>       0.00462963 </v>
   <v>       0.00462963 </v>
   <v>       0.00462963 </v>
   <v>       0.00462963 </v>
   <v>       0.00462963 </v>
   <v>       0.00462963 </v>
   <v>       0.00462963 </v>
   <v>       0.00462963 </v>
   <v>       0.00462963 </v>
   <v>       0.00462963 </v>
   <v>       0.00462963 </v>
   <v>       0.00462963 </v>
   <v>       0.00462963 </v>
   <v>       0.00462963 </v>
   <v>       0.00462963 </v>
   <v>       0.00462963 </v>
   <v>       0.00462963 </v>
   <v>       0.00462963 </v>
   <v>       0.00462963 </v>
   <v>       0.00462963 </v>
   <v>       0.00462963 </v>
   <v>       0.00462963 </v>
   <v>       0.00462963 </v>
   <v>       0.00462963 </v>
   <v>       0.00462963 </v>
   <v>       0.00462963 </v>
   <v>       0.00462963 </v>
   <v>       0.00462963 </v>
   <v>       0.00462963 </v>
   <v>       0.00462963 </v>
   <v>       0.00462963 </v>
   <v>       0.00462963 </v>
   <v>       0.00462963 </v>
   <v>       0.00462963 </v>
   <v>       0.00462963 </v>
   <v>       0.00462963 </v>
   <v>       0.00462963 </v>
   <v>       0.00462963 </v>
   <v>       0.00462963 </v>
   <v>       0.00462963 </v>
   <v>       0.00462963 </v>
   <v>       0.00462963 </v>
   <v>       0.00462963 </v>
   <v>       0.00462963 </v>
   <v>       0.00462963 </v>
   <v>       0.00462963 </v>
   <v>       0.00462963 </v>
   <v>       0.00462963 </v>
   <v>       0.00462963 </v>
   <v>       0.00462963 </v>
   <v>       0.00462963 </v>
   <v>       0.00462963 </v>
   <v>       0.00462963 </v>
   <v>       0.00462963 </v>
   <v>       0.00462963 </v>
   <v>       0.00462963 </v>
   <v>       0.00462963 </v>
   <v>       0.00462963 </v>
   <v>       0.00462963 </v>
   <v>       0.00462963 </v>
   <v>       0.00462963 </v>
   <v>       0.00462963 </v>
   <v>       0.00462963 </v>
   <v>       0.00462963 </v>
   <v>       0.00462963 </v>
   <v>       0.00462963 </v>
   <v>       0.00462963 </v>
   <v>       0.00462963 </v>
   <v>       0.00462963 </v>
   <v>       0.00462963 </v>
   <v>       0.00462963 </v>
   <v>       0.00462963 </v>
   <v>       0.00462963 </v>
   <v>       0.00462963 </v>
   <v>       0.00462963 </v>
   <v>       0.00462963 </v>
   <v>       0.00462963 </v>
   <v>       0.00462963 </v>
   <v>       0.00462963 </v>
   <v>       0.00462963 </v>
   <v>       0.00462963 </v>
   <v>       0.00462963 </v>
   <v>       0.00462963 </v>
   <v>       0.00462963 </v>
   <v>       0.00462963 </v>
   <v>       0.00462963 </v>
   <v>       0.00462963 </v>
   <v>       0.00462963 </v>
   <v>       0.00462963 </v>
   <v>       0.00462963 </v>
   <v>       0.00462963 </v>
   <v>       0.00462963 </v>
   <v>       0.00462963 </v>
   <v>       0.00462963 </v>
   <v>       0.00462963 </v>
   <v>       0.00462963 </v>
   <v>       0.00462963 </v>
   <v>       0.00462963 </v>
   <v>       0.00462963 </v>
   <v>       0.00462963 </v>
   <v>       0.00462963 </v>
   <v>       0.00462963 </v>
   <v>       0.00462963 </v>
   <v>       0.00462963 </v>
   <v>       0.00462963 </v>
   <v>       0.00462963 </v>
   <v>       0.00462963 </v>
   <v>       0.00462963 </v>
   <v>       0.00462963 </v>
   <v>       0.00462963 </v>
   <v>       0.00462963 </v>
   <v>       0.00462963 </v>
   <v>       0.00462963 </v>
   <v>       0.00462963 </v>
   <v>       0.00462963 </v>
   <v>       0.00462963 </v>
   <v>       0.00462963 </v>
   <v>       0.00462963 </v>
   <v>       0.00462963 </v>
   <v>       0.00462963 </v>
   <v>       0.00462963 </v>
   <v>       0.00462963 </v>
   <v>       0.00462963 </v>
   <v>       0.00462963 </v>
   <v>       0.00462963 </v>
   <v>       0.00462963 </v>
   <v>       0.00462963 </v>
   <v>       0.00462963 </v>
   <v>       0.00462963 </v>
   <v>       0.00462963 </v>
   <v>       0.00462963 </v>
   <v>       0.00462963 </v>
   <v>       0.00462963 </v>
   <v>       0.00462963 </v>
   <v>       0.00462963 </v>
   <v>       0.00462963 </v>
   <v>       0.00462963 </v>
   <v>       0.00462963 </v>
   <v>       0.00462963 </v>
   <v>       0.00462963 </v>
   <v>       0.00462963 </v>
   <v>       0.00462963 </v>
   <v>       0.00462963 </v>
   <v>       0.00462963 </v>
   <v>       0.00462963 </v>
   <v>       0.00462963 </v>
   <v>       0.00462963 </v>
   <v>       0.00462963 </v>
   <v>       0.00462963 </v>
  </varray>
 </kpoints>
 <dielectricfunction comment="HEAD OF MICROSCOPIC DIELECTRIC TENSOR (INDEPENDENT PARTICLE)">
  <imag>
   <array>
    <dimension dim="1">gridpoints</dimension>
    <field>energy</field>
    <field>xx</field>
    <field>yy</field>
    <field>zz</field>
    <field>xy</field>
    <field>yz</field>
    <field>zx</field>
    <set>
     <r>     0.0000     0.0000     0.0000    -0.0000    -0.0000    -0.0000     0.0000 </r>
     <r>     1.2668     0.0003     0.0003     0.0003    -0.0000    -0.0000    -0.0000 </r>
     <r>     2.5291     0.0006     0.0006     0.0006    -0.0000    -0.0000    -0.0000 </r>
     <r>     3.7828     0.0010     0.0010     0.0010    -0.0000    -0.0000    -0.0000 </r>
     <r>     5.0240     0.0013     0.0013     0.0013    -0.0000    -0.0000    -0.0000 </r>
     <r>     6.2497     0.0017     0.0017     0.0017    -0.0000    -0.0000    -0.0000 </r>
     <r>     7.4575     0.0020     0.0020     0.0020    -0.0000    -0.0000    -0.0000 </r>
     <r>     8.6460     0.0025     0.0025     0.0025    -0.0000    -0.0000    -0.0000 </r>
     <r>     9.8143     0.0030     0.0030     0.0030    -0.0000    -0.0000    -0.0000 </r>
     <r>    10.9623     0.0035     0.0035     0.0035    -0.0000    -0.0000    -0.0000 </r>
     <r>    12.0909     0.0041     0.0041     0.0041    -0.0000    -0.0000    -0.0000 </r>
     <r>    13.2013     0.0049     0.0049     0.0049    -0.0000    -0.0000    -0.0000 </r>
     <r>    14.2950     0.0058     0.0058     0.0058    -0.0000    -0.0000    -0.0000 </r>
     <r>    15.3746     0.0069     0.0069     0.0069    -0.0000    -0.0000    -0.0000 </r>
     <r>    16.4423     0.0084     0.0084     0.0084    -0.0000    -0.0000    -0.0000 </r>
     <r>    17.5010     0.0104     0.0104     0.0104    -0.0000    -0.0000    -0.0000 </r>
     <r>    18.5538     0.0133     0.0133     0.0133     0.0000     0.0000     0.0000 </r>
     <r>    19.6042     0.0180     0.0180     0.0180    -0.0000    -0.0000    -0.0000 </r>
     <r>    20.6556     0.0271     0.0271     0.0271    -0.0000    -0.0000    -0.0000 </r>
     <r>    21.7119     0.0512     0.0512     0.0512     0.0000     0.0000     0.0000 </r>
     <r>    22.7771     0.1069     0.1068     0.1068     0.0000     0.0000     0.0000 </r>
     <r>    23.8559     0.1685     0.1685     0.1685     0.0000     0.0000     0.0000 </r>
     <r>    24.9529     0.2032     0.2032     0.2032     0.0000     0.0000     0.0000 </r>
     <r>    26.0734     0.2470     0.2470     0.2470    -0.0000    -0.0000    -0.0000 </r>
     <r>    27.2231     0.2405     0.2405     0.2405    -0.0000    -0.0000    -0.0000 </r>
     <r>    28.4086     0.2691     0.2692     0.2692    -0.0000    -0.0000    -0.0000 </r>
     <r>    29.6370     0.2814     0.2814     0.2814    -0.0000    -0.0000    -0.0000 </r>
     <r>    30.9166     0.3096     0.3096     0.3096     0.0000     0.0000     0.0000 </r>
     <r>    32.2565     0.3297     0.3297     0.3297     0.0000     0.0000     0.0000 </r>
     <r>    33.6677     0.3847     0.3848     0.3848    -0.0000    -0.0000    -0.0000 </r>
     <r>    35.1629     0.4181     0.4181     0.4181    -0.0000    -0.0000    -0.0000 </r>
     <r>    36.7567     0.3488     0.3487     0.3487     0.0000     0.0000     0.0000 </r>
     <r>    38.4669     0.3343     0.3343     0.3343    -0.0000    -0.0000    -0.0000 </r>
     <r>    40.3149     0.3384     0.3384     0.3384    -0.0000    -0.0000    -0.0000 </r>
     <r>    42.3264     0.3688     0.3688     0.3688     0.0000     0.0000     0.0000 </r>
     <r>    44.5332     0.2623     0.2623     0.2623    -0.0000    -0.0000    -0.0000 </r>
     <r>    46.9748     0.2210     0.2210     0.2210     0.0000     0.0000     0.0000 </r>
     <r>    49.7010     0.2194     0.2194     0.2194    -0.0000    -0.0000    -0.0000 </r>
     <r>    52.7755     0.2890     0.2890     0.2890    -0.0000    -0.0000    -0.0000 </r>
     <r>    56.2808     0.2363     0.2363     0.2363    -0.0000    -0.0000    -0.0000 </r>
     <r>    60.3262     0.1368     0.1368     0.1368     0.0000     0.0000     0.0000 </r>
     <r>    65.0587     0.1189     0.1189     0.1189     0.0000     0.0000     0.0000 </r>
     <r>    70.6819     0.1087     0.1087     0.1087     0.0000     0.0000     0.0000 </r>
     <r>    77.4844     0.0925     0.0925     0.0925     0.0000     0.0000     0.0000 </r>
     <r>    85.8899     0.0826     0.0826     0.0826    -0.0000    -0.0000    -0.0000 </r>
     <r>    96.5465     0.0498     0.0498     0.0498     0.0000     0.0000     0.0000 </r>
     <r>   110.4961     0.0349     0.0349     0.0349     0.0000     0.0000     0.0000 </r>
     <r>   129.5283     0.0210     0.0210     0.0210    -0.0000    -0.0000    -0.0000 </r>
     <r>   156.9961     0.0050     0.0050     0.0050    -0.0000    -0.0000    -0.0000 </r>
     <r>   200.0000     0.0004     0.0004     0.0004    -0.0000    -0.0000    -0.0000 </r>
    </set>
   </array>
  </imag>
  <real>
   <array>
    <dimension dim="1">gridpoints</dimension>
    <field>energy</field>
    <field>xx</field>
    <field>yy</field>
    <field>zz</field>
    <field>xy</field>
    <field>yz</field>
    <field>zx</field>
    <set>
     <r>     0.0000     1.2170     1.2170     1.2171    -0.0000    -0.0000    -0.0000 </r>
     <r>     1.2668     1.2173     1.2173     1.2173    -0.0000    -0.0000    -0.0000 </r>
     <r>     2.5291     1.2181     1.2181     1.2181    -0.0000    -0.0000    -0.0000 </r>
     <r>     3.7828     1.2193     1.2193     1.2193    -0.0000    -0.0000    -0.0000 </r>
     <r>     5.0240     1.2211     1.2211     1.2211    -0.0000    -0.0000    -0.0000 </r>
     <r>     6.2497     1.2234     1.2234     1.2234    -0.0000    -0.0000    -0.0000 </r>
     <r>     7.4575     1.2263     1.2263     1.2263    -0.0000    -0.0000    -0.0000 </r>
     <r>     8.6460     1.2297     1.2297     1.2297    -0.0000    -0.0000    -0.0000 </r>
     <r>     9.8143     1.2337     1.2337     1.2337    -0.0000    -0.0000    -0.0000 </r>
     <r>    10.9623     1.2385     1.2385     1.2385    -0.0000    -0.0000    -0.0000 </r>
     <r>    12.0909     1.2440     1.2440     1.2440    -0.0000    -0.0000    -0.0000 </r>
     <r>    13.2013     1.2504     1.2504     1.2504    -0.0000    -0.0000    -0.0000 </r>
     <r>    14.2950     1.2578     1.2578     1.2578    -0.0000    -0.0000    -0.0000 </r>
     <r>    15.3746     1.2665     1.2665     1.2665    -0.0000    -0.0000    -0.0000 </r>
     <r>    16.4423     1.2769     1.2769     1.2769    -0.0000    -0.0000    -0.0000 </r>
     <r>    17.5010     1.2894     1.2894     1.2894    -0.0000    -0.0000    -0.0000 </r>
     <r>    18.5538     1.3049     1.3049     1.3049    -0.0000    -0.0000    -0.0000 </r>
     <r>    19.6042     1.3249     1.3249     1.3249    -0.0000    -0.0000    -0.0000 </r>
     <r>    20.6556     1.3524     1.3524     1.3524    -0.0000    -0.0000    -0.0000 </r>
     <r>    21.7119     1.3902     1.3902     1.3902     0.0000     0.0000     0.0000 </r>
     <r>    22.7771     1.4182     1.4182     1.4182    -0.0000    -0.0000    -0.0000 </r>
     <r>    23.8559     1.4060     1.4060     1.4060    -0.0000    -0.0000    -0.0000 </r>
     <r>    24.9529     1.3883     1.3883     1.3883    -0.0000    -0.0000    -0.0000 </r>
     <r>    26.0734     1.3524     1.3524     1.3524    -0.0000    -0.0000    -0.0000 </r>
     <r>    27.2231     1.3267     1.3267     1.3267    -0.0000    -0.0000    -0.0000 </r>
     <r>    28.4086     1.3198     1.3198     1.3199    -0.0000    -0.0000    -0.0000 </r>
     <r>    29.6370     1.3010     1.3010     1.3009     0.0000     0.0000     0.0000 </r>
     <r>    30.9166     1.2863     1.2863     1.2863     0.0000     0.0000     0.0000 </r>
     <r>    32.2565     1.2703     1.2703     1.2703    -0.0000    -0.0000    -0.0000 </r>
     <r>    33.6677     1.2434     1.2434     1.2434    -0.0000    -0.0000    -0.0000 </r>
     <r>    35.1629     1.1456     1.1455     1.1455     0.0000     0.0000     0.0000 </r>
     <r>    36.7567     1.0847     1.0847     1.0847     0.0000     0.0000     0.0000 </r>
     <r>    38.4669     1.0868     1.0868     1.0868    -0.0000    -0.0000    -0.0000 </r>
     <r>    40.3149     1.0746     1.0746     1.0746     0.0000     0.0000     0.0000 </r>
     <r>    42.3264     0.9992     0.9992     0.9992     0.0000     0.0000     0.0000 </r>
     <r>    44.5332     0.9424     0.9424     0.9424     0.0000     0.0000     0.0000 </r>
     <r>    46.9748     0.9796     0.9796     0.9796     0.0000     0.0000     0.0000 </r>
     <r>    49.7010     1.0148     1.0148     1.0148    -0.0000    -0.0000    -0.0000 </r>
     <r>    52.7755     0.9784     0.9784     0.9784     0.0000     0.0000     0.0000 </r>
     <r>    56.2808     0.8851     0.8851     0.8851     0.0000     0.0000     0.0000 </r>
     <r>    60.3262     0.8862     0.8862     0.8862     0.0000     0.0000     0.0000 </r>
     <r>    65.0587     0.9248     0.9248     0.9248     0.0000     0.0000     0.0000 </r>
     <r>    70.6819     0.9314     0.9314     0.9314     0.0000     0.0000     0.0000 </r>
     <r>    77.4844     0.9344     0.9344     0.9344    -0.0000    -0.0000    -0.0000 </r>
     <r>    85.8899     0.9312     0.9312     0.9312     0.0000     0.0000     0.0000 </r>
     <r>    96.5465     0.9322     0.9322     0.9322     0.0000     0.0000     0.0000 </r>
     <r>   110.4961     0.9460     0.9460     0.9460     0.0000     0.0000    -0.0000 </r>
     <r>   129.5283     0.9547     0.9547     0.9547     0.0000     0.0000     0.0000 </r>
     <r>   156.9961     0.9672     0.9672     0.9672     0.0000     0.0000     0.0000 </r>
     <r>   200.0000     0.9820     0.9820     0.9820     0.0000     0.0000     0.0000 </r>
    </set>
   </array>
  </real>
 </dielectricfunction>
 <varray name="epsilon_diag_mic" >
  <v>       0.00000000       1.21704918 </v>
  <v>       2.58733272       1.10782371 </v>
  <v>       5.17466545       1.02528254 </v>
  <v>       5.17466545       1.02528255 </v>
  <v>       2.58733272       1.10782368 </v>
  <v>       2.58733272       1.10782371 </v>
  <v>       2.98759449       1.08852900 </v>
  <v>       4.95436497       1.02907898 </v>
  <v>       6.51131123       1.01034897 </v>
  <v>       4.22509665       1.04521676 </v>
  <v>       5.17466545       1.02528254 </v>
  <v>       4.95436497       1.02907898 </v>
  <v>       5.97518898       1.01492867 </v>
  <v>       6.51131123       1.01034897 </v>
  <v>       5.17466545       1.02528255 </v>
  <v>       6.51131123       1.01034897 </v>
  <v>       5.97518898       1.01492866 </v>
  <v>       4.95436497       1.02907898 </v>
  <v>       2.58733272       1.10782368 </v>
  <v>       4.22509665       1.04521676 </v>
  <v>       6.51131123       1.01034897 </v>
  <v>       4.95436497       1.02907898 </v>
  <v>       2.98759449       1.08852904 </v>
  <v>       2.58733272       1.10782373 </v>
  <v>       2.98759449       1.08852901 </v>
  <v>       4.95436497       1.02907898 </v>
  <v>       6.51131123       1.01034897 </v>
  <v>       4.22509665       1.04521677 </v>
  <v>       2.98759449       1.08852901 </v>
  <v>       2.58733272       1.10782459 </v>
  <v>       4.22509665       1.04521636 </v>
  <v>       6.51131123       1.01034901 </v>
  <v>       4.95436497       1.02907902 </v>
  <v>       4.95436497       1.02907898 </v>
  <v>       4.22509665       1.04521636 </v>
  <v>       4.95436497       1.02907883 </v>
  <v>       6.68046437       1.00921972 </v>
  <v>       6.68046437       1.00921964 </v>
  <v>       6.51131123       1.01034900 </v>
  <v>       6.68046437       1.00921972 </v>
  <v>       6.51131123       1.01034897 </v>
  <v>       6.68046437       1.00921963 </v>
  <v>       4.22509665       1.04521677 </v>
  <v>       4.95436497       1.02907902 </v>
  <v>       6.68046437       1.00921964 </v>
  <v>       6.68046437       1.00921964 </v>
  <v>       4.95436497       1.02907902 </v>
  <v>       5.17466545       1.02528255 </v>
  <v>       4.95436497       1.02907898 </v>
  <v>       5.97518898       1.01492867 </v>
  <v>       6.51131123       1.01034897 </v>
  <v>       4.95436497       1.02907898 </v>
  <v>       4.22509665       1.04521636 </v>
  <v>       4.95436497       1.02907883 </v>
  <v>       6.68046437       1.00921972 </v>
  <v>       6.68046437       1.00921964 </v>
  <v>       5.97518898       1.01492867 </v>
  <v>       4.95436497       1.02907884 </v>
  <v>       5.17466545       1.02528222 </v>
  <v>       6.51131123       1.01034902 </v>
  <v>       6.68046437       1.00921972 </v>
  <v>       6.51131123       1.01034902 </v>
  <v>       6.51131123       1.01034897 </v>
  <v>       6.68046437       1.00921964 </v>
  <v>       6.51131123       1.01034901 </v>
  <v>       6.68046437       1.00921972 </v>
  <v>       6.68046437       1.00921972 </v>
  <v>       6.51131123       1.01034902 </v>
  <v>       6.51131123       1.01034902 </v>
  <v>       6.68046437       1.00921971 </v>
  <v>       6.68046437       1.00921971 </v>
  <v>       6.51131123       1.01034900 </v>
  <v>       5.17466545       1.02528255 </v>
  <v>       6.51131123       1.01034897 </v>
  <v>       5.97518898       1.01492866 </v>
  <v>       4.95436497       1.02907899 </v>
  <v>       6.51131123       1.01034897 </v>
  <v>       6.68046437       1.00921963 </v>
  <v>       6.51131123       1.01034902 </v>
  <v>       6.68046437       1.00921971 </v>
  <v>       5.97518898       1.01492866 </v>
  <v>       6.51131123       1.01034902 </v>
  <v>       5.17466545       1.02528223 </v>
  <v>       4.95436497       1.02907884 </v>
  <v>       4.95436497       1.02907899 </v>
  <v>       6.68046437       1.00921964 </v>
  <v>       6.68046437       1.00921971 </v>
  <v>       4.95436497       1.02907884 </v>
  <v>       4.22509665       1.04521638 </v>
  <v>       2.58733272       1.10782370 </v>
  <v>       4.22509665       1.04521677 </v>
  <v>       6.51131123       1.01034897 </v>
  <v>       4.95436497       1.02907898 </v>
  <v>       2.98759449       1.08852904 </v>
  <v>       4.22509665       1.04521677 </v>
  <v>       4.95436497       1.02907902 </v>
  <v>       6.68046437       1.00921964 </v>
  <v>       6.68046437       1.00921963 </v>
  <v>       4.95436497       1.02907902 </v>
  <v>       6.51131123       1.01034897 </v>
  <v>       6.68046437       1.00921964 </v>
  <v>       6.68046437       1.00921971 </v>
  <v>       6.51131123       1.01034900 </v>
  <v>       4.95436497       1.02907898 </v>
  <v>       6.68046437       1.00921964 </v>
  <v>       6.68046437       1.00921971 </v>
  <v>       4.95436497       1.02907884 </v>
  <v>       4.22509665       1.04521638 </v>
  <v>       2.98759449       1.08852905 </v>
  <v>       4.95436497       1.02907902 </v>
  <v>       6.51131123       1.01034900 </v>
  <v>       4.22509665       1.04521638 </v>
  <v>       2.58733272       1.10782449 </v>
 </varray>
 <dielectricfunction comment="1 + v P,  with REDUCIBLE POLARIZABILTY P=P_0 (1 -(v+f) P_0)^-1">
  <imag>
   <array>
    <dimension dim="1">gridpoints</dimension>
    <field>energy</field>
    <field>xx</field>
    <field>yy</field>
    <field>zz</field>
    <field>xy</field>
    <field>yz</field>
    <field>zx</field>
    <set>
     <r>     0.0000     0.0000     0.0000    -0.0000     0.0000     0.0000    -0.0000 </r>
     <r>     1.2668     0.0003     0.0003     0.0003     0.0000     0.0000     0.0000 </r>
     <r>     2.5291     0.0006     0.0006     0.0006     0.0000     0.0000     0.0000 </r>
     <r>     3.7828     0.0010     0.0010     0.0010     0.0000     0.0000     0.0000 </r>
     <r>     5.0240     0.0013     0.0013     0.0013     0.0000     0.0000     0.0000 </r>
     <r>     6.2497     0.0017     0.0017     0.0017     0.0000     0.0000     0.0000 </r>
     <r>     7.4575     0.0020     0.0020     0.0020     0.0000     0.0000     0.0000 </r>
     <r>     8.6460     0.0025     0.0025     0.0025     0.0000     0.0000     0.0000 </r>
     <r>     9.8143     0.0030     0.0030     0.0030     0.0000     0.0000     0.0000 </r>
     <r>    10.9623     0.0035     0.0035     0.0035     0.0000     0.0000     0.0000 </r>
     <r>    12.0909     0.0041     0.0041     0.0041     0.0000     0.0000     0.0000 </r>
     <r>    13.2013     0.0049     0.0049     0.0049     0.0000     0.0000     0.0000 </r>
     <r>    14.2950     0.0058     0.0058     0.0058     0.0000     0.0000     0.0000 </r>
     <r>    15.3746     0.0069     0.0069     0.0069     0.0000     0.0000     0.0000 </r>
     <r>    16.4423     0.0084     0.0084     0.0084     0.0000     0.0000     0.0000 </r>
     <r>    17.5010     0.0104     0.0104     0.0104     0.0000     0.0000     0.0000 </r>
     <r>    18.5538     0.0133     0.0133     0.0133    -0.0000    -0.0000    -0.0000 </r>
     <r>    19.6042     0.0180     0.0180     0.0180     0.0000     0.0000     0.0000 </r>
     <r>    20.6556     0.0271     0.0271     0.0271     0.0000     0.0000     0.0000 </r>
     <r>    21.7119     0.0512     0.0512     0.0512    -0.0000    -0.0000    -0.0000 </r>
     <r>    22.7771     0.1068     0.1068     0.1068    -0.0000    -0.0000    -0.0000 </r>
     <r>    23.8559     0.1684     0.1684     0.1684    -0.0000    -0.0000    -0.0000 </r>
     <r>    24.9529     0.2032     0.2032     0.2032    -0.0000    -0.0000    -0.0000 </r>
     <r>    26.0734     0.2469     0.2470     0.2470     0.0000     0.0000     0.0000 </r>
     <r>    27.2231     0.2405     0.2405     0.2405     0.0000     0.0000     0.0000 </r>
     <r>    28.4086     0.2692     0.2692     0.2692     0.0000     0.0000     0.0000 </r>
     <r>    29.6370     0.2814     0.2814     0.2814     0.0000     0.0000     0.0000 </r>
     <r>    30.9166     0.3097     0.3096     0.3095    -0.0000    -0.0000    -0.0000 </r>
     <r>    32.2565     0.3297     0.3296     0.3296    -0.0000    -0.0000    -0.0000 </r>
     <r>    33.6677     0.3847     0.3847     0.3847     0.0000     0.0000     0.0000 </r>
     <r>    35.1629     0.4181     0.4181     0.4181     0.0000     0.0000     0.0000 </r>
     <r>    36.7567     0.3488     0.3488     0.3487    -0.0000    -0.0000    -0.0000 </r>
     <r>    38.4669     0.3343     0.3343     0.3343     0.0000     0.0000     0.0000 </r>
     <r>    40.3149     0.3384     0.3383     0.3384     0.0000     0.0000     0.0000 </r>
     <r>    42.3264     0.3688     0.3688     0.3688    -0.0000    -0.0000    -0.0000 </r>
     <r>    44.5332     0.2623     0.2623     0.2624     0.0000     0.0000     0.0000 </r>
     <r>    46.9748     0.2210     0.2209     0.2210    -0.0000    -0.0000    -0.0000 </r>
     <r>    49.7010     0.2194     0.2194     0.2194     0.0000     0.0000     0.0000 </r>
     <r>    52.7755     0.2889     0.2889     0.2889     0.0000     0.0000     0.0000 </r>
     <r>    56.2808     0.2363     0.2363     0.2363     0.0000     0.0000     0.0000 </r>
     <r>    60.3262     0.1369     0.1369     0.1369    -0.0000    -0.0000    -0.0000 </r>
     <r>    65.0587     0.1189     0.1189     0.1189    -0.0000    -0.0000    -0.0000 </r>
     <r>    70.6819     0.1087     0.1087     0.1087    -0.0000    -0.0000    -0.0000 </r>
     <r>    77.4844     0.0925     0.0925     0.0925    -0.0000    -0.0000    -0.0000 </r>
     <r>    85.8899     0.0826     0.0826     0.0826     0.0000     0.0000     0.0000 </r>
     <r>    96.5465     0.0498     0.0498     0.0498    -0.0000    -0.0000    -0.0000 </r>
     <r>   110.4961     0.0349     0.0349     0.0349    -0.0000    -0.0000    -0.0000 </r>
     <r>   129.5283     0.0210     0.0210     0.0210     0.0000     0.0000     0.0000 </r>
     <r>   156.9961     0.0050     0.0050     0.0050     0.0000     0.0000     0.0000 </r>
     <r>   200.0000     0.0004     0.0004     0.0004     0.0000     0.0000     0.0000 </r>
    </set>
   </array>
  </imag>
  <real>
   <array>
    <dimension dim="1">gridpoints</dimension>
    <field>energy</field>
    <field>xx</field>
    <field>yy</field>
    <field>zz</field>
    <field>xy</field>
    <field>yz</field>
    <field>zx</field>
    <set>
     <r>     0.0000     1.2170     1.2170     1.2170     0.0000     0.0000     0.0000 </r>
     <r>     1.2668     1.2173     1.2173     1.2173     0.0000     0.0000     0.0000 </r>
     <r>     2.5291     1.2180     1.2180     1.2180     0.0000     0.0000     0.0000 </r>
     <r>     3.7828     1.2193     1.2193     1.2193     0.0000     0.0000     0.0000 </r>
     <r>     5.0240     1.2211     1.2211     1.2211     0.0000     0.0000     0.0000 </r>
     <r>     6.2497     1.2234     1.2234     1.2234     0.0000     0.0000     0.0000 </r>
     <r>     7.4575     1.2262     1.2262     1.2262     0.0000     0.0000     0.0000 </r>
     <r>     8.6460     1.2297     1.2297     1.2297     0.0000     0.0000     0.0000 </r>
     <r>     9.8143     1.2337     1.2337     1.2337     0.0000     0.0000     0.0000 </r>
     <r>    10.9623     1.2385     1.2385     1.2385     0.0000     0.0000     0.0000 </r>
     <r>    12.0909     1.2440     1.2440     1.2440     0.0000     0.0000     0.0000 </r>
     <r>    13.2013     1.2504     1.2504     1.2504     0.0000     0.0000     0.0000 </r>
     <r>    14.2950     1.2578     1.2578     1.2578     0.0000     0.0000     0.0000 </r>
     <r>    15.3746     1.2665     1.2665     1.2665     0.0000     0.0000     0.0000 </r>
     <r>    16.4423     1.2768     1.2768     1.2768     0.0000     0.0000     0.0000 </r>
     <r>    17.5010     1.2893     1.2893     1.2893     0.0000     0.0000     0.0000 </r>
     <r>    18.5538     1.3049     1.3049     1.3049     0.0000     0.0000     0.0000 </r>
     <r>    19.6042     1.3249     1.3249     1.3249     0.0000     0.0000     0.0000 </r>
     <r>    20.6556     1.3524     1.3524     1.3524     0.0000     0.0000     0.0000 </r>
     <r>    21.7119     1.3902     1.3902     1.3902    -0.0000    -0.0000    -0.0000 </r>
     <r>    22.7771     1.4182     1.4182     1.4182     0.0000     0.0000     0.0000 </r>
     <r>    23.8559     1.4060     1.4061     1.4060     0.0000     0.0000     0.0000 </r>
     <r>    24.9529     1.3882     1.3883     1.3883     0.0000     0.0000     0.0000 </r>
     <r>    26.0734     1.3525     1.3524     1.3525     0.0000     0.0000     0.0000 </r>
     <r>    27.2231     1.3268     1.3267     1.3267     0.0000     0.0000     0.0000 </r>
     <r>    28.4086     1.3199     1.3198     1.3199     0.0000     0.0000     0.0000 </r>
[...]
       <r>    81.2069     0.0000     0.0000 </r>
       <r>    81.8539     0.0000     0.0000 </r>
       <r>    82.5008     0.0000     0.0000 </r>
       <r>    83.1478     0.0000     0.0000 </r>
       <r>    83.7948     0.0000     0.0000 </r>
       <r>    84.4417     0.0000     0.0000 </r>
       <r>    85.0887     0.0000     0.0000 </r>
       <r>    85.7357     0.0000     0.0000 </r>
       <r>    86.3826     0.0000     0.0000 </r>
       <r>    87.0296     0.0000     0.0000 </r>
       <r>    87.6765     0.0000     0.0000 </r>
       <r>    88.3235     0.0000     0.0000 </r>
       <r>    88.9705     0.0000     0.0000 </r>
       <r>    89.6174     0.0000     0.0000 </r>
       <r>    90.2644     0.0000     0.0000 </r>
       <r>    90.9114     0.0000     0.0000 </r>
       <r>    91.5583     0.0000     0.0000 </r>
       <r>    92.2053     0.0000     0.0000 </r>
       <r>    92.8522     0.0000     0.0000 </r>
       <r>    93.4992     0.0000     0.0000 </r>
       <r>    94.1462     0.0000     0.0000 </r>
       <r>    94.7931     0.0000     0.0000 </r>
       <r>    95.4401     0.0000     0.0000 </r>
       <r>    96.0871     0.0000     0.0000 </r>
       <r>    96.7340     0.0000     0.0000 </r>
       <r>    97.3810     0.0000     0.0000 </r>
       <r>    98.0280     0.0000     0.0000 </r>
       <r>    98.6749     0.0000     0.0000 </r>
       <r>    99.3219     0.0000     0.0000 </r>
       <r>    99.9688     0.0000     0.0000 </r>
       <r>   100.6158     0.0000     0.0000 </r>
       <r>   101.2628     0.0000     0.0000 </r>
       <r>   101.9097     0.0000     0.0000 </r>
       <r>   102.5567     0.0000     0.0000 </r>
       <r>   103.2037     0.0000     0.0000 </r>
       <r>   103.8506     0.0000     0.0000 </r>
       <r>   104.4976     0.0000     0.0000 </r>
       <r>   105.1446     0.0000     0.0000 </r>
       <r>   105.7915     0.0000     0.0000 </r>
       <r>   106.4385     0.0000     0.0000 </r>
       <r>   107.0854     0.0000     0.0000 </r>
       <r>   107.7324     0.0000     0.0000 </r>
       <r>   108.3794     0.0000     0.0000 </r>
       <r>   109.0263     0.0000     0.0000 </r>
       <r>   109.6733     0.0000     0.0000 </r>
       <r>   110.3203     0.0000     0.0000 </r>
       <r>   110.9672     0.0000     0.0000 </r>
       <r>   111.6142     0.0000     0.0000 </r>
       <r>   112.2611     0.0000     0.0000 </r>
       <r>   112.9081     0.0000     0.0000 </r>
       <r>   113.5551     0.0000     0.0000 </r>
       <r>   114.2020     0.0000     0.0000 </r>
       <r>   114.8490     0.0000     0.0000 </r>
       <r>   115.4960     0.0000     0.0000 </r>
       <r>   116.1429     0.0000     0.0000 </r>
       <r>   116.7899     0.0000     0.0000 </r>
       <r>   117.4369     0.0000     0.0000 </r>
       <r>   118.0838     0.0000     0.0000 </r>
       <r>   118.7308     0.0000     0.0000 </r>
       <r>   119.3777     0.0000     0.0000 </r>
       <r>   120.0247     0.0000     0.0000 </r>
       <r>   120.6717     0.0000     0.0000 </r>
       <r>   121.3186     0.0000     0.0000 </r>
       <r>   121.9656     0.0000     0.0000 </r>
       <r>   122.6126     0.0000     0.0000 </r>
       <r>   123.2595     0.0000     0.0000 </r>
       <r>   123.9065     0.0000     0.0000 </r>
       <r>   124.5535     0.0000     0.0000 </r>
       <r>   125.2004     0.0000     0.0000 </r>
       <r>   125.8474     0.0000     0.0000 </r>
       <r>   126.4943     0.0000     0.0000 </r>
       <r>   127.1413     0.0000     0.0000 </r>
       <r>   127.7883     0.0000     0.0000 </r>
       <r>   128.4352     0.0000     0.0000 </r>
       <r>   129.0822     0.0000     0.0000 </r>
       <r>   129.7292     0.0000     0.0000 </r>
       <r>   130.3761     0.0000     0.0000 </r>
       <r>   131.0231     0.0000     0.0000 </r>
       <r>   131.6700     0.0000     0.0000 </r>
       <r>   132.3170     0.0000     0.0000 </r>
       <r>   132.9640     0.0000     0.0000 </r>
       <r>   133.6109     0.0000     0.0000 </r>
       <r>   134.2579     0.0000     0.0000 </r>
       <r>   134.9049     0.0000     0.0000 </r>
       <r>   135.5518     0.0000     0.0000 </r>
       <r>   136.1988     0.0000     0.0000 </r>
       <r>   136.8458     0.0000     0.0000 </r>
       <r>   137.4927     0.0000     0.0000 </r>
      </set>
      <set comment="spin 4">
       <r>   -56.5963     0.0000     0.0000 </r>
       <r>   -55.9493     0.0000     0.0000 </r>
       <r>   -55.3024     0.0000     0.0000 </r>
       <r>   -54.6554     0.0000     0.0000 </r>
       <r>   -54.0084     0.0000     0.0000 </r>
       <r>   -53.3615     0.0000     0.0000 </r>
       <r>   -52.7145     0.0000     0.0000 </r>
       <r>   -52.0675     0.0000     0.0000 </r>
       <r>   -51.4206     0.0000     0.0000 </r>
       <r>   -50.7736     0.0000     0.0000 </r>
       <r>   -50.1266     0.0000     0.0000 </r>
       <r>   -49.4797     0.0000     0.0000 </r>
       <r>   -48.8327     0.0000     0.0000 </r>
       <r>   -48.1858     0.0000     0.0000 </r>
       <r>   -47.5388     0.0000     0.0000 </r>
       <r>   -46.8918     0.0000     0.0000 </r>
       <r>   -46.2449     0.0000     0.0000 </r>
       <r>   -45.5979     0.0000     0.0000 </r>
       <r>   -44.9509     0.0000     0.0000 </r>
       <r>   -44.3040     0.0000     0.0000 </r>
       <r>   -43.6570     0.0000     0.0000 </r>
       <r>   -43.0100     0.0000     0.0000 </r>
       <r>   -42.3631     0.0000     0.0000 </r>
       <r>   -41.7161     0.0000     0.0000 </r>
       <r>   -41.0692     0.0000     0.0000 </r>
       <r>   -40.4222     0.0000     0.0000 </r>
       <r>   -39.7752     0.0000     0.0000 </r>
       <r>   -39.1283     0.0000     0.0000 </r>
       <r>   -38.4813     0.0000     0.0000 </r>
       <r>   -37.8343     0.0000     0.0000 </r>
       <r>   -37.1874     0.0000     0.0000 </r>
       <r>   -36.5404     0.0000     0.0000 </r>
       <r>   -35.8935     0.0000     0.0000 </r>
       <r>   -35.2465     0.0000     0.0000 </r>
       <r>   -34.5995     0.0000     0.0000 </r>
       <r>   -33.9526     0.0000     0.0000 </r>
       <r>   -33.3056     0.0000     0.0000 </r>
       <r>   -32.6586     0.0000     0.0000 </r>
       <r>   -32.0117     0.0000     0.0000 </r>
       <r>   -31.3647     0.0000     0.0000 </r>
       <r>   -30.7177     0.0000     0.0000 </r>
       <r>   -30.0708     0.0000     0.0000 </r>
       <r>   -29.4238     0.0000     0.0000 </r>
       <r>   -28.7769     0.0000     0.0000 </r>
       <r>   -28.1299     0.0000     0.0000 </r>
       <r>   -27.4829     0.0000     0.0000 </r>
       <r>   -26.8360     0.0000     0.0000 </r>
       <r>   -26.1890     0.0000     0.0000 </r>
       <r>   -25.5420     0.0000     0.0000 </r>
       <r>   -24.8951     0.0000     0.0000 </r>
       <r>   -24.2481     0.0000     0.0000 </r>
       <r>   -23.6011     0.0000     0.0000 </r>
       <r>   -22.9542     0.0000     0.0000 </r>
       <r>   -22.3072     0.0000     0.0000 </r>
       <r>   -21.6603     0.0000     0.0000 </r>
       <r>   -21.0133     0.0000     0.0000 </r>
       <r>   -20.3663     0.0000     0.0000 </r>
       <r>   -19.7194     0.0000     0.0000 </r>
       <r>   -19.0724     0.0000     0.0000 </r>
       <r>   -18.4254     0.0000     0.0000 </r>
       <r>   -17.7785     0.0000     0.0000 </r>
       <r>   -17.1315     0.0000     0.0000 </r>
       <r>   -16.4846     0.0000     0.0000 </r>
       <r>   -15.8376     0.0000     0.0000 </r>
       <r>   -15.1906     0.0000     0.0000 </r>
       <r>   -14.5437     0.0000     0.0000 </r>
       <r>   -13.8967     0.0000     0.0000 </r>
       <r>   -13.2497     0.0000     0.0000 </r>
       <r>   -12.6028     0.0000     0.0000 </r>
       <r>   -11.9558     0.0000     0.0000 </r>
       <r>   -11.3088     0.0000     0.0000 </r>
       <r>   -10.6619     0.0000     0.0000 </r>
       <r>   -10.0149     0.0000     0.0000 </r>
       <r>    -9.3680     0.0000     0.0000 </r>
       <r>    -8.7210     0.0000     0.0000 </r>
       <r>    -8.0740     0.0000     0.0000 </r>
       <r>    -7.4271     0.0000     0.0000 </r>
       <r>    -6.7801     0.0000     0.0000 </r>
       <r>    -6.1331     0.0000     0.0000 </r>
       <r>    -5.4862     0.0000     0.0000 </r>
       <r>    -4.8392     0.0000     0.0000 </r>
       <r>    -4.1922     0.0000     0.0000 </r>
       <r>    -3.5453     0.0000     0.0000 </r>
       <r>    -2.8983     0.0000     0.0000 </r>
       <r>    -2.2514     0.0000     0.0000 </r>
       <r>    -1.6044     0.0000     0.0000 </r>
       <r>    -0.9574     0.0000     0.0000 </r>
       <r>    -0.3105     0.0000     0.0000 </r>
       <r>     0.3365     0.0000     0.0000 </r>
       <r>     0.9835     0.0000     0.0000 </r>
       <r>     1.6304     0.0000     0.0000 </r>
       <r>     2.2774     0.0000     0.0000 </r>
       <r>     2.9243     0.0000     0.0000 </r>
       <r>     3.5713     0.0000     0.0000 </r>
       <r>     4.2183     0.0000     0.0000 </r>
       <r>     4.8652     0.0000     0.0000 </r>
       <r>     5.5122     0.0000     0.0000 </r>
       <r>     6.1592     0.0000     0.0000 </r>
       <r>     6.8061     0.0000     0.0000 </r>
       <r>     7.4531     0.0000     0.0000 </r>
       <r>     8.1001     0.0000     0.0000 </r>
       <r>     8.7470     0.0000     0.0000 </r>
       <r>     9.3940     0.0000     0.0000 </r>
       <r>    10.0409     0.0000     0.0000 </r>
       <r>    10.6879     0.0000     0.0000 </r>
       <r>    11.3349     0.0000     0.0000 </r>
       <r>    11.9818     0.0000     0.0000 </r>
       <r>    12.6288     0.0000     0.0000 </r>
       <r>    13.2758     0.0000     0.0000 </r>
       <r>    13.9227     0.0000     0.0000 </r>
       <r>    14.5697     0.0000     0.0000 </r>
       <r>    15.2167     0.0000     0.0000 </r>
       <r>    15.8636     0.0000     0.0000 </r>
       <r>    16.5106     0.0000     0.0000 </r>
       <r>    17.1575     0.0000     0.0000 </r>
       <r>    17.8045     0.0000     0.0000 </r>
       <r>    18.4515     0.0000     0.0000 </r>
       <r>    19.0984     0.0000     0.0000 </r>
       <r>    19.7454     0.0000     0.0000 </r>
       <r>    20.3924     0.0000     0.0000 </r>
       <r>    21.0393     0.0000     0.0000 </r>
       <r>    21.6863     0.0000     0.0000 </r>
       <r>    22.3332     0.0000     0.0000 </r>
       <r>    22.9802     0.0000     0.0000 </r>
       <r>    23.6272     0.0000     0.0000 </r>
       <r>    24.2741     0.0000     0.0000 </r>
       <r>    24.9211     0.0000     0.0000 </r>
       <r>    25.5681     0.0000     0.0000 </r>
       <r>    26.2150     0.0000     0.0000 </r>
       <r>    26.8620     0.0000     0.0000 </r>
       <r>    27.5090     0.0000     0.0000 </r>
       <r>    28.1559     0.0000     0.0000 </r>
       <r>    28.8029     0.0000     0.0000 </r>
       <r>    29.4498     0.0000     0.0000 </r>
       <r>    30.0968     0.0000     0.0000 </r>
       <r>    30.7438     0.0000     0.0000 </r>
       <r>    31.3907     0.0000     0.0000 </r>
       <r>    32.0377     0.0000     0.0000 </r>
       <r>    32.6847     0.0000     0.0000 </r>
       <r>    33.3316     0.0000     0.0000 </r>
       <r>    33.9786     0.0000     0.0000 </r>
       <r>    34.6256     0.0000     0.0000 </r>
       <r>    35.2725     0.0000     0.0000 </r>
       <r>    35.9195     0.0000     0.0000 </r>
       <r>    36.5664     0.0000     0.0000 </r>
       <r>    37.2134     0.0000     0.0000 </r>
       <r>    37.8604     0.0000     0.0000 </r>
       <r>    38.5073     0.0000     0.0000 </r>
       <r>    39.1543     0.0000     0.0000 </r>
       <r>    39.8013     0.0000     0.0000 </r>
       <r>    40.4482     0.0000     0.0000 </r>
       <r>    41.0952     0.0000     0.0000 </r>
       <r>    41.7421     0.0000     0.0000 </r>
       <r>    42.3891     0.0000     0.0000 </r>
       <r>    43.0361     0.0000     0.0000 </r>
       <r>    43.6830     0.0000     0.0000 </r>
       <r>    44.3300     0.0000     0.0000 </r>
       <r>    44.9770     0.0000     0.0000 </r>
       <r>    45.6239     0.0000     0.0000 </r>
       <r>    46.2709     0.0000     0.0000 </r>
       <r>    46.9179     0.0000     0.0000 </r>
       <r>    47.5648     0.0000     0.0000 </r>
       <r>    48.2118     0.0000     0.0000 </r>
       <r>    48.8587     0.0000     0.0000 </r>
       <r>    49.5057     0.0000     0.0000 </r>
       <r>    50.1527     0.0000     0.0000 </r>
       <r>    50.7996     0.0000     0.0000 </r>
       <r>    51.4466     0.0000     0.0000 </r>
       <r>    52.0936     0.0000     0.0000 </r>
       <r>    52.7405     0.0000     0.0000 </r>
       <r>    53.3875     0.0000     0.0000 </r>
       <r>    54.0344     0.0000     0.0000 </r>
       <r>    54.6814     0.0000     0.0000 </r>
       <r>    55.3284     0.0000     0.0000 </r>
       <r>    55.9753     0.0000     0.0000 </r>
       <r>    56.6223     0.0000     0.0000 </r>
       <r>    57.2693     0.0000     0.0000 </r>
       <r>    57.9162     0.0000     0.0000 </r>
       <r>    58.5632     0.0000     0.0000 </r>
       <r>    59.2102     0.0000     0.0000 </r>
       <r>    59.8571     0.0000     0.0000 </r>
       <r>    60.5041     0.0000     0.0000 </r>
       <r>    61.1510     0.0000     0.0000 </r>
       <r>    61.7980     0.0000     0.0000 </r>
       <r>    62.4450     0.0000     0.0000 </r>
       <r>    63.0919     0.0000     0.0000 </r>
       <r>    63.7389     0.0000     0.0000 </r>
       <r>    64.3859     0.0000     0.0000 </r>
       <r>    65.0328     0.0000     0.0000 </r>
       <r>    65.6798     0.0000     0.0000 </r>
       <r>    66.3268     0.0000     0.0000 </r>
       <r>    66.9737     0.0000     0.0000 </r>
       <r>    67.6207     0.0000     0.0000 </r>
       <r>    68.2676     0.0000     0.0000 </r>
       <r>    68.9146     0.0000     0.0000 </r>
       <r>    69.5616     0.0000     0.0000 </r>
       <r>    70.2085     0.0000     0.0000 </r>
       <r>    70.8555     0.0000     0.0000 </r>
       <r>    71.5025     0.0000     0.0000 </r>
       <r>    72.1494     0.0000     0.0000 </r>
       <r>    72.7964     0.0000     0.0000 </r>
       <r>    73.4433     0.0000     0.0000 </r>
       <r>    74.0903     0.0000     0.0000 </r>
       <r>    74.7373     0.0000     0.0000 </r>
       <r>    75.3842     0.0000     0.0000 </r>
       <r>    76.0312     0.0000     0.0000 </r>
       <r>    76.6782     0.0000     0.0000 </r>
       <r>    77.3251     0.0000     0.0000 </r>
       <r>    77.9721     0.0000     0.0000 </r>
       <r>    78.6191     0.0000     0.0000 </r>
       <r>    79.2660     0.0000     0.0000 </r>
       <r>    79.9130     0.0000     0.0000 </r>
       <r>    80.5599     0.0000     0.0000 </r>
       <r>    81.2069     0.0000     0.0000 </r>
       <r>    81.8539     0.0000     0.0000 </r>
       <r>    82.5008     0.0000     0.0000 </r>
       <r>    83.1478     0.0000     0.0000 </r>
       <r>    83.7948     0.0000     0.0000 </r>
       <r>    84.4417     0.0000     0.0000 </r>
       <r>    85.0887     0.0000     0.0000 </r>
       <r>    85.7357     0.0000     0.0000 </r>
       <r>    86.3826     0.0000     0.0000 </r>
       <r>    87.0296     0.0000     0.0000 </r>
       <r>    87.6765     0.0000     0.0000 </r>
       <r>    88.3235     0.0000     0.0000 </r>
       <r>    88.9705     0.0000     0.0000 </r>
       <r>    89.6174     0.0000     0.0000 </r>
       <r>    90.2644     0.0000     0.0000 </r>
       <r>    90.9114     0.0000     0.0000 </r>
       <r>    91.5583     0.0000     0.0000 </r>
       <r>    92.2053     0.0000     0.0000 </r>
       <r>    92.8522     0.0000     0.0000 </r>
       <r>    93.4992     0.0000     0.0000 </r>
       <r>    94.1462     0.0000     0.0000 </r>
       <r>    94.7931     0.0000     0.0000 </r>
       <r>    95.4401     0.0000     0.0000 </r>
       <r>    96.0871     0.0000     0.0000 </r>
       <r>    96.7340     0.0000     0.0000 </r>
       <r>    97.3810     0.0000     0.0000 </r>
       <r>    98.0280     0.0000     0.0000 </r>
       <r>    98.6749     0.0000     0.0000 </r>
       <r>    99.3219     0.0000     0.0000 </r>
       <r>    99.9688     0.0000     0.0000 </r>
       <r>   100.6158     0.0000     0.0000 </r>
       <r>   101.2628     0.0000     0.0000 </r>
       <r>   101.9097     0.0000     0.0000 </r>
       <r>   102.5567     0.0000     0.0000 </r>
       <r>   103.2037     0.0000     0.0000 </r>
       <r>   103.8506     0.0000     0.0000 </r>
       <r>   104.4976     0.0000     0.0000 </r>
       <r>   105.1446     0.0000     0.0000 </r>
       <r>   105.7915     0.0000     0.0000 </r>
       <r>   106.4385     0.0000     0.0000 </r>
       <r>   107.0854     0.0000     0.0000 </r>
       <r>   107.7324     0.0000     0.0000 </r>
       <r>   108.3794     0.0000     0.0000 </r>
       <r>   109.0263     0.0000     0.0000 </r>
       <r>   109.6733     0.0000     0.0000 </r>
       <r>   110.3203     0.0000     0.0000 </r>
       <r>   110.9672     0.0000     0.0000 </r>
       <r>   111.6142     0.0000     0.0000 </r>
       <r>   112.2611     0.0000     0.0000 </r>
       <r>   112.9081     0.0000     0.0000 </r>
       <r>   113.5551     0.0000     0.0000 </r>
       <r>   114.2020     0.0000     0.0000 </r>
       <r>   114.8490     0.0000     0.0000 </r>
       <r>   115.4960     0.0000     0.0000 </r>
       <r>   116.1429     0.0000     0.0000 </r>
       <r>   116.7899     0.0000     0.0000 </r>
       <r>   117.4369     0.0000     0.0000 </r>
       <r>   118.0838     0.0000     0.0000 </r>
       <r>   118.7308     0.0000     0.0000 </r>
       <r>   119.3777     0.0000     0.0000 </r>
       <r>   120.0247     0.0000     0.0000 </r>
       <r>   120.6717     0.0000     0.0000 </r>
       <r>   121.3186     0.0000     0.0000 </r>
       <r>   121.9656     0.0000     0.0000 </r>
       <r>   122.6126     0.0000     0.0000 </r>
       <r>   123.2595     0.0000     0.0000 </r>
       <r>   123.9065     0.0000     0.0000 </r>
       <r>   124.5535     0.0000     0.0000 </r>
       <r>   125.2004     0.0000     0.0000 </r>
       <r>   125.8474     0.0000     0.0000 </r>
       <r>   126.4943     0.0000     0.0000 </r>
       <r>   127.1413     0.0000     0.0000 </r>
       <r>   127.7883     0.0000     0.0000 </r>
       <r>   128.4352     0.0000     0.0000 </r>
       <r>   129.0822     0.0000     0.0000 </r>
       <r>   129.7292     0.0000     0.0000 </r>
       <r>   130.3761     0.0000     0.0000 </r>
       <r>   131.0231     0.0000     0.0000 </r>
       <r>   131.6700     0.0000     0.0000 </r>
       <r>   132.3170     0.0000     0.0000 </r>
       <r>   132.9640     0.0000     0.0000 </r>
       <r>   133.6109     0.0000     0.0000 </r>
       <r>   134.2579     0.0000     0.0000 </r>
       <r>   134.9049     0.0000     0.0000 </r>
       <r>   135.5518     0.0000     0.0000 </r>
       <r>   136.1988     0.0000     0.0000 </r>
       <r>   136.8458     0.0000     0.0000 </r>
       <r>   137.4927     0.0000     0.0000 </r>
      </set>
     </set>
    </array>
   </total>
  </dos>
 </calculation>
 <structure name="finalpos" >
  <crystal>
   <varray name="basis" >
    <v>       2.97422087       0.00000000       0.00000000 </v>
    <v>       1.48711043       2.57575083       0.00000000 </v>
    <v>       1.48711043       0.85858361       2.42844117 </v>
   </varray>
   <i name="volume">     18.60392805 </i>
   <varray name="rec_basis" >
    <v>       0.33622251      -0.19411816      -0.13726226 </v>
    <v>       0.00000000       0.38823631      -0.13726226 </v>
    <v>       0.00000000       0.00000000       0.41178679 </v>
   </varray>
  </crystal>
  <varray name="positions" >
   <v>       0.00000000       0.00000000       0.00000000 </v>
  </varray>
  <varray name="velocities" >
   <v>       0.00000000       0.00000000       0.00000000 </v>
  </varray>
 </structure>
</modeling>
