   1   1   0   0
  0.6008441E+02  0.4396350E-09  0.4396350E-09  0.4396350E-09  0.1000000E-15
  1.000000000000000E-004
  CAR 
 Og_FCC                                  
    131.46241368    -35.95454405  301      1.71427144      1.00000000
    -35.955  0.0000E+00  0.0000E+00
    -35.396  0.0000E+00  0.0000E+00
    -34.838  0.0000E+00  0.0000E+00
    -34.280  0.0000E+00  0.0000E+00
    -33.722  0.0000E+00  0.0000E+00
    -33.164  0.0000E+00  0.0000E+00
    -32.606  0.0000E+00  0.0000E+00
    -32.048  0.0000E+00  0.0000E+00
    -31.490  0.0000E+00  0.0000E+00
    -30.932  0.0000E+00  0.0000E+00
    -30.374  0.0000E+00  0.0000E+00
    -29.816  0.0000E+00  0.0000E+00
    -29.258  0.0000E+00  0.0000E+00
    -28.700  0.0000E+00  0.0000E+00
    -28.142  0.0000E+00  0.1000E+02
    -27.584  0.0000E+00  0.1000E+02
    -27.026  0.0000E+00  0.1000E+02
    -26.468  0.0000E+00  0.1000E+02
    -25.910  0.0000E+00  0.1000E+02
    -25.351  0.0000E+00  0.1000E+02
    -24.793  0.0000E+00  0.1000E+02
    -24.235  0.0000E+00  0.1000E+02
    -23.677  0.0000E+00  0.1000E+02
    -23.119  0.0000E+00  0.1000E+02
    -22.561  0.0000E+00  0.1000E+02
    -22.003  0.0000E+00  0.1000E+02
    -21.445  0.0000E+00  0.1000E+02
    -20.887  0.0000E+00  0.1200E+02
    -20.329  0.0000E+00  0.1200E+02
    -19.771  0.0000E+00  0.1200E+02
    -19.213  0.0000E+00  0.1200E+02
    -18.655  0.0000E+00  0.1200E+02
    -18.097  0.0000E+00  0.1200E+02
    -17.539  0.0000E+00  0.1200E+02
    -16.981  0.0000E+00  0.1200E+02
    -16.423  0.0000E+00  0.1200E+02
    -15.865  0.0000E+00  0.1200E+02
    -15.306  0.0000E+00  0.1200E+02
    -14.748  0.0000E+00  0.1200E+02
    -14.190  0.0000E+00  0.1200E+02
    -13.632  0.0000E+00  0.1200E+02
    -13.074  0.0000E+00  0.1200E+02
    -12.516  0.0000E+00  0.1200E+02
    -11.958  0.0000E+00  0.1200E+02
    -11.400  0.0000E+00  0.1200E+02
    -10.842  0.0000E+00  0.1200E+02
    -10.284  0.0000E+00  0.1200E+02
     -9.726  0.0000E+00  0.1200E+02
     -9.168  0.0000E+00  0.1200E+02
     -8.610  0.0000E+00  0.1200E+02
     -8.052  0.0000E+00  0.1200E+02
     -7.494  0.0000E+00  0.1200E+02
     -6.936  0.0000E+00  0.1200E+02
     -6.378  0.0000E+00  0.1200E+02
     -5.819  0.0000E+00  0.1200E+02
     -5.261  0.0000E+00  0.1200E+02
     -4.703  0.0000E+00  0.1200E+02
     -4.145  0.0000E+00  0.1200E+02
     -3.587  0.0000E+00  0.1200E+02
     -3.029  0.0000E+00  0.1200E+02
     -2.471  0.0000E+00  0.1200E+02
     -1.913  0.0000E+00  0.1200E+02
     -1.355  0.0000E+00  0.1200E+02
     -0.797  0.0000E+00  0.1334E+02
     -0.239  0.0000E+00  0.1398E+02
      0.319  0.0000E+00  0.1475E+02
      0.877  0.0000E+00  0.1658E+02
      1.435  0.0000E+00  0.1798E+02
      1.993  0.0000E+00  0.1800E+02
      2.551  0.0000E+00  0.1800E+02
      3.109  0.0000E+00  0.1800E+02
      3.667  0.0000E+00  0.1801E+02
      4.226  0.0000E+00  0.1801E+02
      4.784  0.0000E+00  0.1805E+02
      5.342  0.0000E+00  0.1809E+02
      5.900  0.0000E+00  0.1820E+02
      6.458  0.0000E+00  0.1843E+02
      7.016  0.0000E+00  0.1909E+02
      7.574  0.1254E+00  0.1958E+02
      8.132  0.0000E+00  0.2010E+02
      8.690  0.0000E+00  0.2070E+02
      9.248  0.6269E-01  0.2150E+02
      9.806  0.0000E+00  0.2218E+02
     10.364  0.2508E+00  0.2362E+02
     10.922  0.2427E+00  0.2446E+02
     11.480  0.0000E+00  0.2493E+02
     12.038  0.0000E+00  0.2563E+02
     12.596  0.0000E+00  0.2711E+02
     13.154  0.0000E+00  0.2827E+02
     13.712  0.1242E+00  0.2956E+02
     14.271  0.0000E+00  0.3038E+02
     14.829  0.0000E+00  0.3147E+02
     15.387  0.1392E-16  0.3237E+02
     15.945  0.0000E+00  0.3280E+02
     16.503  0.0000E+00  0.3408E+02
     17.061  0.0000E+00  0.3647E+02
     17.619  0.0000E+00  0.3774E+02
     18.177  0.9131E-02  0.4093E+02
     18.735  0.2890E-02  0.4228E+02
     19.293  0.0000E+00  0.4370E+02
     19.851  0.0000E+00  0.4551E+02
     20.409  0.0000E+00  0.4591E+02
     20.967  0.0000E+00  0.4605E+02
     21.525  0.0000E+00  0.4668E+02
     22.083  0.0000E+00  0.4773E+02
     22.641  0.2866E-10  0.4847E+02
     23.199  0.0000E+00  0.4984E+02
     23.758  0.6661E-01  0.5115E+02
     24.316  0.0000E+00  0.5394E+02
     24.874  0.2508E+00  0.5550E+02
     25.432  0.0000E+00  0.5686E+02
     25.990  0.0000E+00  0.5759E+02
     26.548  0.0000E+00  0.5880E+02
     27.106  0.4910E-01  0.6030E+02
     27.664  0.0000E+00  0.6052E+02
     28.222  0.2212E-03  0.6138E+02
     28.780  0.0000E+00  0.6312E+02
     29.338  0.0000E+00  0.6417E+02
     29.896  0.0000E+00  0.6549E+02
     30.454  0.0000E+00  0.6678E+02
     31.012  0.0000E+00  0.6847E+02
     31.570  0.2501E+00  0.7033E+02
     32.128  0.0000E+00  0.7193E+02
     32.686  0.0000E+00  0.7303E+02
     33.244  0.0000E+00  0.7411E+02
     33.803  0.0000E+00  0.7597E+02
     34.361  0.0000E+00  0.7666E+02
     34.919  0.0000E+00  0.7907E+02
     35.477  0.0000E+00  0.8044E+02
     36.035  0.5357E-01  0.8225E+02
     36.593  0.2253E-08  0.8342E+02
     37.151  0.0000E+00  0.8406E+02
     37.709  0.3204E-07  0.8485E+02
     38.267  0.2507E+00  0.8736E+02
     38.825  0.0000E+00  0.8900E+02
     39.383  0.0000E+00  0.8964E+02
     39.941  0.1254E+00  0.9212E+02
     40.499  0.0000E+00  0.9386E+02
     41.057  0.0000E+00  0.9483E+02
     41.615  0.6269E-01  0.9660E+02
     42.173  0.1502E-01  0.9861E+02
     42.731  0.0000E+00  0.9935E+02
     43.289  0.0000E+00  0.1005E+03
     43.848  0.0000E+00  0.1027E+03
     44.406  0.0000E+00  0.1038E+03
     44.964  0.0000E+00  0.1058E+03
     45.522  0.3920E-05  0.1077E+03
     46.080  0.2508E+00  0.1093E+03
     46.638  0.3134E+00  0.1107E+03
     47.196  0.0000E+00  0.1128E+03
     47.754  0.0000E+00  0.1140E+03
     48.312  0.1310E+00  0.1159E+03
     48.870  0.5013E-13  0.1174E+03
     49.428  0.0000E+00  0.1190E+03
     49.986  0.0000E+00  0.1209E+03
     50.544  0.0000E+00  0.1225E+03
     51.102  0.0000E+00  0.1245E+03
     51.660  0.2508E+00  0.1263E+03
     52.218  0.0000E+00  0.1279E+03
     52.776  0.0000E+00  0.1301E+03
     53.335  0.0000E+00  0.1315E+03
     53.893  0.0000E+00  0.1328E+03
     54.451  0.0000E+00  0.1355E+03
     55.009  0.0000E+00  0.1368E+03
     55.567  0.0000E+00  0.1383E+03
     56.125  0.0000E+00  0.1400E+03
     56.683  0.0000E+00  0.1414E+03
     57.241  0.5530E-05  0.1431E+03
     57.799  0.9793E-07  0.1452E+03
     58.357  0.0000E+00  0.1473E+03
     58.915  0.0000E+00  0.1493E+03
     59.473  0.0000E+00  0.1509E+03
     60.031  0.2508E+00  0.1530E+03
     60.589  0.0000E+00  0.1547E+03
     61.147  0.0000E+00  0.1564E+03
     61.705  0.3501E-01  0.1579E+03
     62.263  0.0000E+00  0.1602E+03
     62.821  0.1672E+00  0.1621E+03
     63.380  0.0000E+00  0.1645E+03
     63.938  0.0000E+00  0.1665E+03
     64.496  0.2520E-08  0.1678E+03
     65.054  0.6269E-01  0.1697E+03
     65.612  0.0000E+00  0.1723E+03
     66.170  0.0000E+00  0.1737E+03
     66.728  0.1196E-05  0.1756E+03
     67.286  0.0000E+00  0.1773E+03
     67.844  0.0000E+00  0.1796E+03
     68.402  0.4892E-01  0.1809E+03
     68.960  0.3761E+00  0.1839E+03
     69.518  0.0000E+00  0.1854E+03
     70.076  0.6269E-01  0.1871E+03
     70.634  0.0000E+00  0.1888E+03
     71.192  0.1608E-03  0.1910E+03
     71.750  0.0000E+00  0.1938E+03
     72.308  0.0000E+00  0.1951E+03
     72.866  0.1631E+00  0.1971E+03
     73.425  0.0000E+00  0.1996E+03
     73.983  0.2508E+00  0.2014E+03
     74.541  0.0000E+00  0.2037E+03
     75.099  0.0000E+00  0.2056E+03
     75.657  0.0000E+00  0.2075E+03
     76.215  0.0000E+00  0.2101E+03
     76.773  0.2508E+00  0.2127E+03
     77.331  0.1230E+00  0.2151E+03
     77.889  0.0000E+00  0.2171E+03
     78.447  0.0000E+00  0.2203E+03
     79.005  0.0000E+00  0.2227E+03
     79.563  0.0000E+00  0.2240E+03
     80.121  0.0000E+00  0.2261E+03
     80.679  0.0000E+00  0.2280E+03
     81.237  0.0000E+00  0.2296E+03
     81.795  0.0000E+00  0.2320E+03
     82.353  0.0000E+00  0.2348E+03
     82.911  0.0000E+00  0.2370E+03
     83.470  0.2475E-10  0.2388E+03
     84.028  0.0000E+00  0.2408E+03
     84.586  0.2508E+00  0.2427E+03
     85.144  0.1035E-10  0.2448E+03
     85.702  0.0000E+00  0.2473E+03
     86.260  0.0000E+00  0.2500E+03
     86.818  0.3041E-02  0.2523E+03
     87.376  0.2508E+00  0.2546E+03
     87.934  0.0000E+00  0.2561E+03
     88.492  0.0000E+00  0.2584E+03
     89.050  0.0000E+00  0.2607E+03
     89.608  0.8826E-07  0.2624E+03
     90.166  0.0000E+00  0.2646E+03
     90.724  0.0000E+00  0.2667E+03
     91.282  0.0000E+00  0.2690E+03
     91.840  0.3815E-13  0.2718E+03
     92.398  0.0000E+00  0.2745E+03
     92.957  0.0000E+00  0.2765E+03
     93.515  0.0000E+00  0.2792E+03
     94.073  0.0000E+00  0.2809E+03
     94.631  0.0000E+00  0.2833E+03
     95.189  0.1442E+00  0.2854E+03
     95.747  0.0000E+00  0.2873E+03
     96.305  0.5015E+00  0.2899E+03
     96.863  0.9830E-03  0.2916E+03
     97.421  0.0000E+00  0.2945E+03
     97.979  0.2754E-05  0.2966E+03
     98.537  0.0000E+00  0.2986E+03
     99.095  0.5393E-04  0.3009E+03
     99.653  0.0000E+00  0.3039E+03
    100.211  0.0000E+00  0.3068E+03
    100.769  0.0000E+00  0.3085E+03
    101.327  0.1683E-06  0.3113E+03
    101.885  0.0000E+00  0.3137E+03
    102.443  0.0000E+00  0.3150E+03
    103.002  0.0000E+00  0.3174E+03
    103.560  0.3761E+00  0.3201E+03
    104.118  0.0000E+00  0.3215E+03
    104.676  0.0000E+00  0.3241E+03
    105.234  0.0000E+00  0.3272E+03
    105.792  0.0000E+00  0.3296E+03
    106.350  0.0000E+00  0.3322E+03
    106.908  0.0000E+00  0.3342E+03
    107.466  0.0000E+00  0.3366E+03
    108.024  0.0000E+00  0.3391E+03
    108.582  0.6665E+00  0.3424E+03
    109.140  0.1672E+00  0.3443E+03
    109.698  0.0000E+00  0.3470E+03
    110.256  0.1881E+00  0.3491E+03
    110.814  0.0000E+00  0.3513E+03
    111.372  0.1112E-02  0.3539E+03
    111.930  0.0000E+00  0.3562E+03
    112.488  0.1254E+00  0.3581E+03
    113.047  0.2091E-01  0.3607E+03
    113.605  0.0000E+00  0.3633E+03
    114.163  0.0000E+00  0.3658E+03
    114.721  0.0000E+00  0.3687E+03
    115.279  0.1476E-12  0.3713E+03
    115.837  0.0000E+00  0.3743E+03
    116.395  0.0000E+00  0.3762E+03
    116.953  0.0000E+00  0.3789E+03
    117.511  0.0000E+00  0.3812E+03
    118.069  0.0000E+00  0.3840E+03
    118.627  0.0000E+00  0.3861E+03
    119.185  0.0000E+00  0.3882E+03
    119.743  0.0000E+00  0.3899E+03
    120.301  0.0000E+00  0.3909E+03
    120.859  0.0000E+00  0.3915E+03
    121.417  0.0000E+00  0.3915E+03
    121.975  0.0000E+00  0.3917E+03
    122.534  0.0000E+00  0.3918E+03
    123.092  0.0000E+00  0.3920E+03
    123.650  0.0000E+00  0.3920E+03
    124.208  0.0000E+00  0.3920E+03
    124.766  0.0000E+00  0.3920E+03
    125.324  0.0000E+00  0.3920E+03
    125.882  0.0000E+00  0.3920E+03
    126.440  0.0000E+00  0.3920E+03
    126.998  0.0000E+00  0.3920E+03
    127.556  0.0000E+00  0.3920E+03
    128.114  0.0000E+00  0.3920E+03
    128.672  0.0000E+00  0.3920E+03
    129.230  0.0000E+00  0.3920E+03
    129.788  0.0000E+00  0.3920E+03
    130.346  0.0000E+00  0.3920E+03
    130.904  0.0000E+00  0.3920E+03
    131.462  0.0000E+00  0.3920E+03
