    1    1    1    1
  0.6008441E+02  0.4396350E-09  0.4396350E-09  0.4396350E-09  0.1000000E-15
  1.000000000000000E-004
  CAR 
 Og_FCC                                  
     18    172    196
 
  0.0000000E+00  0.0000000E+00  0.0000000E+00  0.2915452E-02
    1      -28.344682   1.000000
    2      -28.344682   1.000000
    3      -28.344682   1.000000
    4      -28.333876   1.000000
    5      -28.333876   1.000000
    6      -21.347650   1.000000
    7        1.485816   1.000000
    8        1.485816   1.000000
    9        1.485816   1.000000
   10        3.570115   0.000000
   11       10.651582   0.000000
   12       10.651583   0.000000
   13       10.651583   0.000000
   14       11.021343   0.000000
   15       13.192639   0.000000
   16       13.192639   0.000000
   17       13.192639   0.000000
   18       13.679047   0.000000
   19       13.679047   0.000000
   20       16.244168   0.000000
   21       19.544606   0.000000
   22       19.544606   0.000000
   23       19.544606   0.000000
   24       25.085708   0.000000
   25       25.085708   0.000000
   26       25.085708   0.000000
   27       25.468582   0.000000
   28       28.714619   0.000000
   29       28.714619   0.000000
   30       29.243338   0.000000
   31       29.459419   0.000000
   32       29.459419   0.000000
   33       29.459419   0.000000
   34       29.643375   0.000000
   35       29.643375   0.000000
   36       29.643376   0.000000
   37       36.891112   0.000000
   38       36.891112   0.000000
   39       36.891112   0.000000
   40       37.603646   0.000000
   41       37.603646   0.000000
   42       37.603646   0.000000
   43       40.176310   0.000000
   44       40.176310   0.000000
   45       40.176310   0.000000
   46       41.309467   0.000000
   47       41.309467   0.000000
   48       41.309468   0.000000
   49       41.460170   0.000000
   50       41.626393   0.000000
   51       41.626393   0.000000
   52       42.286064   0.000000
   53       42.286064   0.000000
   54       42.737349   0.000000
   55       42.737349   0.000000
   56       42.737349   0.000000
   57       44.042339   0.000000
   58       44.815594   0.000000
   59       44.815594   0.000000
   60       44.815594   0.000000
   61       45.919158   0.000000
   62       46.092844   0.000000
   63       46.092844   0.000000
   64       46.092844   0.000000
   65       49.731153   0.000000
   66       49.731153   0.000000
   67       49.731153   0.000000
   68       52.790316   0.000000
   69       52.790316   0.000000
   70       52.790316   0.000000
   71       57.017381   0.000000
   72       57.017381   0.000000
   73       57.147904   0.000000
   74       57.328803   0.000000
   75       64.371369   0.000000
   76       64.371369   0.000000
   77       64.371369   0.000000
   78       64.518321   0.000000
   79       64.518321   0.000000
   80       64.518321   0.000000
   81       65.712333   0.000000
   82       65.712333   0.000000
   83       66.357799   0.000000
   84       66.357799   0.000000
   85       66.357799   0.000000
   86       70.362508   0.000000
   87       70.362508   0.000000
   88       70.362508   0.000000
   89       71.143348   0.000000
   90       71.143348   0.000000
   91       72.270753   0.000000
   92       72.270753   0.000000
   93       72.270753   0.000000
   94       72.353188   0.000000
   95       72.353188   0.000000
   96       72.353188   0.000000
   97       72.702606   0.000000
   98       74.628164   0.000000
   99       74.628164   0.000000
  100       74.628164   0.000000
  101       74.673878   0.000000
  102       75.361856   0.000000
  103       75.361856   0.000000
  104       75.361857   0.000000
  105       75.843264   0.000000
  106       76.679372   0.000000
  107       76.679372   0.000000
  108       76.777266   0.000000
  109       76.777266   0.000000
  110       76.777266   0.000000
  111       78.156461   0.000000
  112       78.156461   0.000000
  113       78.156461   0.000000
  114       78.675704   0.000000
  115       78.675704   0.000000
  116       78.675704   0.000000
  117       80.359936   0.000000
  118       80.611541   0.000000
  119       80.611541   0.000000
  120       80.892060   0.000000
  121       84.088422   0.000000
  122       84.088422   0.000000
  123       84.088422   0.000000
  124       85.927428   0.000000
  125       85.927428   0.000000
  126       85.927428   0.000000
  127       85.961288   0.000000
  128       85.961288   0.000000
  129       85.961288   0.000000
  130       86.316315   0.000000
  131       86.316315   0.000000
  132       86.316315   0.000000
  133       87.435229   0.000000
  134       87.435229   0.000000
  135       88.248262   0.000000
  136       91.754966   0.000000
  137       91.754966   0.000000
  138       91.754966   0.000000
  139       92.182007   0.000000
  140       92.182007   0.000000
  141       95.624340   0.000000
  142       95.624340   0.000000
  143       95.624340   0.000000
  144       97.831548   0.000000
  145       97.831548   0.000000
  146       97.831548   0.000000
  147       98.848156   0.000000
  148       98.848156   0.000000
  149       98.848156   0.000000
  150       99.587471   0.000000
  151       99.669005   0.000000
  152       99.669005   0.000000
  153       99.669005   0.000000
  154       99.684510   0.000000
  155       99.684510   0.000000
  156       99.684510   0.000000
  157       99.708905   0.000000
  158       99.708905   0.000000
  159       99.708905   0.000000
  160       99.834808   0.000000
  161       99.834808   0.000000
  162      100.131387   0.000000
  163      104.158302   0.000000
  164      104.158302   0.000000
  165      104.158302   0.000000
  166      104.381902   0.000000
  167      104.412062   0.000000
  168      104.412062   0.000000
  169      104.412062   0.000000
  170      104.430496   0.000000
  171      104.430496   0.000000
  172      104.430496   0.000000
  173      104.468603   0.000000
  174      104.468603   0.000000
  175      104.640416   0.000000
  176      104.640416   0.000000
  177      104.640416   0.000000
  178      107.028572   0.000000
  179      116.456719   0.000000
  180      116.456719   0.000000
  181      117.250692   0.000000
  182      117.686251   0.000000
  183      117.686251   0.000000
  184      117.686251   0.000000
  185      118.490824   0.000000
  186      118.490824   0.000000
  187      118.490824   0.000000
  188      120.068002   0.000000
  189      120.068002   0.000000
  190      120.068002   0.000000
  191      121.580662   0.000000
  192      121.580662   0.000000
  193      121.580662   0.000000
  194      123.852552   0.000000
  195      123.852552   0.000000
  196      123.852552   0.000000
 
  0.1428571E+00 -0.1253471E-16  0.0000000E+00  0.5830904E-02
    1      -28.337452   1.000000
    2      -28.337452   1.000000
    3      -28.324321   1.000000
    4      -28.323847   1.000000
    5      -28.323846   1.000000
    6      -21.332025   1.000000
    7        0.511381   1.000000
    8        1.410578   1.000000
    9        1.410578   1.000000
   10        4.668628   0.000000
   11        9.714372   0.000000
   12       10.831335   0.000000
   13       10.831335   0.000000
   14       12.124445   0.000000
   15       12.282312   0.000000
   16       12.282312   0.000000
   17       13.128584   0.000000
   18       15.108084   0.000000
   19       15.108084   0.000000
   20       17.522525   0.000000
   21       19.274535   0.000000
   22       19.274535   0.000000
   23       19.591064   0.000000
   24       23.531520   0.000000
   25       24.643936   0.000000
   26       24.643936   0.000000
   27       25.156432   0.000000
   28       26.582814   0.000000
   29       27.721970   0.000000
   30       27.721970   0.000000
   31       29.372311   0.000000
   32       29.372311   0.000000
   33       29.794681   0.000000
   34       31.150266   0.000000
   35       31.150266   0.000000
   36       34.379842   0.000000
   37       34.949465   0.000000
   38       35.775103   0.000000
   39       35.775103   0.000000
   40       36.379284   0.000000
   41       37.998327   0.000000
   42       37.998327   0.000000
   43       38.445289   0.000000
   44       38.445289   0.000000
   45       39.252054   0.000000
   46       39.514134   0.000000
   47       39.514134   0.000000
   48       39.973372   0.000000
   49       40.560109   0.000000
   50       41.794767   0.000000
   51       41.794768   0.000000
   52       42.143054   0.000000
   53       43.550257   0.000000
   54       43.715587   0.000000
   55       43.715587   0.000000
   56       44.146643   0.000000
   57       44.146643   0.000000
   58       45.591781   0.000000
   59       45.591781   0.000000
   60       46.833872   0.000000
   61       47.897763   0.000000
   62       47.897763   0.000000
   63       48.060287   0.000000
   64       49.823079   0.000000
   65       50.694168   0.000000
   66       50.694168   0.000000
   67       50.725631   0.000000
   68       52.102379   0.000000
   69       52.412284   0.000000
   70       52.412284   0.000000
   71       56.242905   0.000000
   72       57.929698   0.000000
   73       57.929698   0.000000
   74       58.674080   0.000000
   75       61.235253   0.000000
   76       61.235253   0.000000
   77       62.814559   0.000000
   78       62.814559   0.000000
   79       63.621524   0.000000
   80       64.506436   0.000000
   81       65.149532   0.000000
   82       65.475596   0.000000
   83       65.475596   0.000000
   84       68.230580   0.000000
   85       68.230580   0.000000
   86       68.460135   0.000000
   87       68.771792   0.000000
   88       68.771792   0.000000
   89       69.996475   0.000000
   90       69.996475   0.000000
   91       70.048805   0.000000
   92       71.033387   0.000000
   93       71.033387   0.000000
   94       71.071483   0.000000
   95       72.526106   0.000000
   96       72.598149   0.000000
   97       73.315362   0.000000
   98       73.315362   0.000000
   99       74.243345   0.000000
  100       74.243345   0.000000
  101       74.590618   0.000000
  102       76.160400   0.000000
  103       76.160400   0.000000
  104       76.303024   0.000000
  105       76.762697   0.000000
  106       76.845841   0.000000
  107       76.845842   0.000000
  108       77.082191   0.000000
  109       77.483908   0.000000
  110       77.483908   0.000000
  111       78.015155   0.000000
  112       78.015155   0.000000
  113       79.425043   0.000000
  114       79.425043   0.000000
  115       79.916123   0.000000
  116       81.325722   0.000000
  117       81.658941   0.000000
  118       81.853528   0.000000
  119       81.853528   0.000000
  120       82.100447   0.000000
  121       82.377232   0.000000
  122       83.278167   0.000000
  123       83.278167   0.000000
  124       84.350947   0.000000
  125       84.350947   0.000000
  126       86.285590   0.000000
  127       86.350593   0.000000
  128       86.350593   0.000000
  129       87.448984   0.000000
  130       88.326531   0.000000
  131       88.326531   0.000000
  132       88.885374   0.000000
  133       89.189420   0.000000
  134       89.318973   0.000000
  135       89.318973   0.000000
  136       90.692162   0.000000
  137       91.034534   0.000000
  138       91.034534   0.000000
  139       92.573414   0.000000
  140       93.561036   0.000000
  141       93.561036   0.000000
  142       94.465658   0.000000
  143       94.465658   0.000000
  144       94.531596   0.000000
  145       94.910259   0.000000
  146       95.621276   0.000000
  147       95.621276   0.000000
  148       96.386544   0.000000
  149       97.152813   0.000000
  150       97.152813   0.000000
  151       97.204833   0.000000
  152       97.204833   0.000000
  153       97.359532   0.000000
  154       99.341068   0.000000
  155       99.341068   0.000000
  156       99.845769   0.000000
  157      100.248303   0.000000
  158      100.248303   0.000000
  159      101.279367   0.000000
  160      101.938299   0.000000
  161      101.938299   0.000000
  162      102.361691   0.000000
  163      103.901130   0.000000
  164      104.141744   0.000000
  165      104.141744   0.000000
  166      105.170973   0.000000
  167      105.170973   0.000000
  168      106.150257   0.000000
  169      106.150257   0.000000
  170      106.265099   0.000000
  171      106.547809   0.000000
  172      109.059045   0.000000
  173      109.847474   0.000000
  174      110.376814   0.000000
  175      110.376814   0.000000
  176      110.655166   0.000000
  177      110.655166   0.000000
  178      110.704049   0.000000
  179      111.488692   0.000000
  180      111.488692   0.000000
  181      113.814357   0.000000
  182      114.686113   0.000000
  183      114.686113   0.000000
  184      115.499992   0.000000
  185      116.326226   0.000000
  186      117.605846   0.000000
  187      117.809077   0.000000
  188      117.809077   0.000000
  189      118.476306   0.000000
  190      118.476306   0.000000
  191      121.483860   0.000000
  192      121.483860   0.000000
  193      122.493319   0.000000
  194      122.920713   0.000000
  195      122.922328   0.000000
  196      122.929250   0.000000
 
  0.2857143E+00  0.2686160E-17  0.1387779E-16  0.5830904E-02
    1      -28.335386   1.000000
    2      -28.328682   1.000000
    3      -28.328682   1.000000
    4      -28.319479   1.000000
    5      -28.319479   1.000000
    6      -21.296755   1.000000
    7       -0.666486   1.000000
    8        1.250093   1.000000
    9        1.250094   1.000000
   10        5.779720   0.000000
   11       10.066523   0.000000
   12       10.619480   0.000000
   13       10.619480   0.000000
   14       11.312150   0.000000
   15       12.605543   0.000000
   16       12.605543   0.000000
   17       15.489626   0.000000
   18       16.828121   0.000000
   19       16.828121   0.000000
   20       18.246753   0.000000
   21       18.246753   0.000000
   22       19.605726   0.000000
   23       19.708899   0.000000
   24       20.114494   0.000000
   25       24.258690   0.000000
   26       24.258690   0.000000
   27       24.608163   0.000000
   28       26.219481   0.000000
   29       26.607282   0.000000
   30       26.607282   0.000000
   31       30.141862   0.000000
   32       30.141862   0.000000
   33       30.628957   0.000000
   34       31.020684   0.000000
   35       31.020684   0.000000
   36       31.584319   0.000000
   37       33.311763   0.000000
   38       34.590063   0.000000
   39       35.010036   0.000000
   40       35.010036   0.000000
   41       35.431048   0.000000
   42       35.431048   0.000000
   43       38.337936   0.000000
   44       38.337936   0.000000
   45       39.220900   0.000000
   46       39.732496   0.000000
   47       39.732496   0.000000
   48       40.823251   0.000000
   49       41.500781   0.000000
   50       41.500781   0.000000
   51       42.323104   0.000000
   52       42.742273   0.000000
   53       43.322044   0.000000
   54       44.647693   0.000000
   55       44.647693   0.000000
   56       45.075638   0.000000
   57       45.075638   0.000000
   58       48.982933   0.000000
   59       49.619784   0.000000
   60       49.619784   0.000000
   61       49.949149   0.000000
   62       49.949149   0.000000
   63       50.072386   0.000000
   64       50.230889   0.000000
   65       52.080195   0.000000
   66       52.080195   0.000000
   67       52.377398   0.000000
   68       54.119590   0.000000
   69       54.119590   0.000000
   70       55.112493   0.000000
   71       55.433348   0.000000
   72       55.433348   0.000000
   73       57.726967   0.000000
   74       58.849357   0.000000
   75       58.849357   0.000000
   76       59.651616   0.000000
   77       60.311506   0.000000
   78       60.852995   0.000000
   79       62.035268   0.000000
   80       62.035268   0.000000
   81       63.800822   0.000000
   82       63.800822   0.000000
   83       64.448959   0.000000
   84       65.903867   0.000000
   85       65.954757   0.000000
   86       65.954757   0.000000
   87       67.577547   0.000000
   88       67.577547   0.000000
   89       68.033501   0.000000
   90       69.881098   0.000000
   91       69.881098   0.000000
   92       70.057576   0.000000
   93       70.711106   0.000000
   94       70.711106   0.000000
   95       71.076773   0.000000
   96       71.076773   0.000000
   97       71.940075   0.000000
   98       72.972366   0.000000
   99       73.110311   0.000000
  100       73.110311   0.000000
  101       74.920246   0.000000
  102       74.920246   0.000000
  103       76.414381   0.000000
  104       76.597579   0.000000
  105       76.893540   0.000000
  106       76.893540   0.000000
  107       78.041762   0.000000
  108       78.409166   0.000000
  109       78.724312   0.000000
  110       78.984723   0.000000
  111       78.984723   0.000000
  112       79.336273   0.000000
  113       79.854325   0.000000
  114       80.802050   0.000000
  115       80.802050   0.000000
  116       81.193274   0.000000
  117       81.193274   0.000000
  118       81.984151   0.000000
  119       81.984151   0.000000
  120       82.560094   0.000000
  121       84.695120   0.000000
  122       84.695120   0.000000
  123       85.542043   0.000000
  124       85.542043   0.000000
  125       85.864606   0.000000
  126       85.864606   0.000000
  127       86.132042   0.000000
  128       86.383929   0.000000
  129       87.285210   0.000000
  130       88.025508   0.000000
  131       88.866342   0.000000
  132       88.866342   0.000000
  133       90.042796   0.000000
  134       90.061775   0.000000
  135       90.351186   0.000000
  136       90.351186   0.000000
  137       90.661775   0.000000
  138       90.661775   0.000000
  139       92.801820   0.000000
  140       92.801820   0.000000
  141       93.236112   0.000000
  142       93.679721   0.000000
  143       93.679721   0.000000
  144       94.229833   0.000000
  145       95.002089   0.000000
  146       95.002089   0.000000
  147       95.718419   0.000000
  148       96.580472   0.000000
  149       96.580472   0.000000
  150       96.743474   0.000000
  151       96.864511   0.000000
  152       99.363590   0.000000
  153       99.715710   0.000000
  154       99.715710   0.000000
  155      100.005917   0.000000
  156      100.005917   0.000000
  157      101.221739   0.000000
  158      101.259168   0.000000
  159      101.259168   0.000000
  160      102.922464   0.000000
  161      103.032802   0.000000
  162      103.032802   0.000000
  163      103.180520   0.000000
  164      104.961990   0.000000
  165      104.961990   0.000000
  166      107.421547   0.000000
  167      107.421547   0.000000
  168      107.992989   0.000000
  169      108.326259   0.000000
  170      109.229815   0.000000
  171      109.229815   0.000000
  172      109.747601   0.000000
  173      110.409965   0.000000
  174      110.409965   0.000000
  175      111.130070   0.000000
  176      111.321647   0.000000
  177      111.321647   0.000000
  178      111.581600   0.000000
  179      111.581600   0.000000
  180      111.813851   0.000000
  181      113.580800   0.000000
  182      114.652256   0.000000
  183      114.652256   0.000000
  184      116.677890   0.000000
  185      116.688130   0.000000
  186      116.688130   0.000000
  187      116.838867   0.000000
  188      117.916437   0.000000
  189      117.916437   0.000000
  190      118.098070   0.000000
  191      118.223466   0.000000
  192      118.223466   0.000000
  193      119.192851   0.000000
  194      119.658711   0.000000
  195      119.658711   0.000000
  196      120.321160   0.000000
 
  0.4285714E+00  0.3178482E-16  0.5551115E-16  0.5830904E-02
    1      -28.328437   1.000000
    2      -28.328436   1.000000
    3      -28.327520   1.000000
    4      -28.319543   1.000000
    5      -28.319543   1.000000
    6      -21.267967   1.000000
    7       -1.322253   1.000000
    8        1.128896   1.000000
    9        1.128896   1.000000
   10        6.005742   0.000000
   11       10.247224   0.000000
   12       10.247224   0.000000
   13       10.633862   0.000000
   14       12.118942   0.000000
   15       13.840905   0.000000
   16       13.840905   0.000000
   17       16.324947   0.000000
   18       16.719719   0.000000
   19       16.719719   0.000000
   20       17.804752   0.000000
   21       18.098891   0.000000
   22       18.098891   0.000000
   23       19.807581   0.000000
   24       22.427154   0.000000
   25       23.928552   0.000000
   26       24.616698   0.000000
   27       24.616698   0.000000
   28       25.833937   0.000000
   29       25.833937   0.000000
   30       26.374243   0.000000
   31       28.223928   0.000000
   32       29.589903   0.000000
   33       29.589903   0.000000
   34       30.723027   0.000000
   35       30.947731   0.000000
   36       30.947731   0.000000
   37       31.635985   0.000000
   38       32.435327   0.000000
   39       33.404235   0.000000
   40       33.404235   0.000000
   41       35.412118   0.000000
   42       35.412118   0.000000
   43       38.459298   0.000000
   44       38.459298   0.000000
   45       39.164845   0.000000
   46       39.164845   0.000000
   47       39.655274   0.000000
   48       41.199154   0.000000
   49       42.507384   0.000000
   50       42.507384   0.000000
   51       44.590159   0.000000
   52       44.743292   0.000000
   53       45.011348   0.000000
   54       45.011348   0.000000
   55       46.812676   0.000000
   56       47.374362   0.000000
   57       47.457414   0.000000
   58       47.457414   0.000000
   59       50.322353   0.000000
   60       50.322353   0.000000
   61       50.764006   0.000000
   62       51.147540   0.000000
   63       51.684997   0.000000
   64       51.684997   0.000000
   65       52.612528   0.000000
   66       52.612528   0.000000
   67       53.318551   0.000000
   68       54.016640   0.000000
   69       54.016640   0.000000
   70       54.251342   0.000000
   71       56.446908   0.000000
   72       56.446908   0.000000
   73       56.641930   0.000000
   74       58.216114   0.000000
   75       58.572998   0.000000
   76       58.572998   0.000000
   77       59.391336   0.000000
   78       59.572254   0.000000
   79       59.572254   0.000000
   80       61.472552   0.000000
   81       62.992383   0.000000
   82       62.992383   0.000000
   83       64.210416   0.000000
   84       64.210416   0.000000
   85       64.602433   0.000000
   86       66.049580   0.000000
   87       66.049580   0.000000
   88       66.690874   0.000000
   89       67.487113   0.000000
   90       67.487113   0.000000
   91       70.354821   0.000000
   92       70.461595   0.000000
   93       70.461595   0.000000
   94       71.283400   0.000000
   95       71.285690   0.000000
   96       71.285690   0.000000
   97       71.719730   0.000000
   98       72.199166   0.000000
   99       72.690487   0.000000
  100       73.231286   0.000000
  101       73.231286   0.000000
  102       74.529951   0.000000
  103       75.087325   0.000000
  104       75.087325   0.000000
  105       76.356773   0.000000
  106       76.566446   0.000000
  107       77.333943   0.000000
  108       77.333943   0.000000
  109       77.627182   0.000000
  110       78.892879   0.000000
  111       78.892879   0.000000
  112       79.430161   0.000000
  113       79.430161   0.000000
  114       79.554600   0.000000
  115       81.671168   0.000000
  116       81.671168   0.000000
  117       82.393106   0.000000
  118       82.411266   0.000000
  119       82.411267   0.000000
  120       83.061778   0.000000
  121       84.474028   0.000000
  122       85.577111   0.000000
  123       85.577111   0.000000
  124       85.969141   0.000000
  125       86.058149   0.000000
  126       86.452715   0.000000
  127       86.452715   0.000000
  128       86.588444   0.000000
  129       86.588444   0.000000
  130       87.411242   0.000000
  131       87.411242   0.000000
  132       87.992522   0.000000
  133       91.676855   0.000000
  134       92.340365   0.000000
  135       92.340365   0.000000
  136       93.051606   0.000000
  137       93.333007   0.000000
  138       93.333007   0.000000
  139       94.028424   0.000000
  140       94.372442   0.000000
  141       94.372442   0.000000
  142       94.470224   0.000000
  143       94.470224   0.000000
  144       95.090488   0.000000
  145       95.840506   0.000000
  146       95.926969   0.000000
  147       95.926969   0.000000
  148       97.083391   0.000000
  149       97.083391   0.000000
  150       99.117409   0.000000
  151       99.258739   0.000000
  152       99.258739   0.000000
  153       99.541287   0.000000
  154      100.113802   0.000000
  155      100.113802   0.000000
  156      100.961725   0.000000
  157      100.993146   0.000000
  158      101.871917   0.000000
  159      101.871917   0.000000
  160      102.597409   0.000000
  161      102.597409   0.000000
  162      102.931716   0.000000
  163      104.334701   0.000000
  164      104.825597   0.000000
  165      105.084875   0.000000
  166      105.084875   0.000000
  167      106.170941   0.000000
  168      106.170941   0.000000
  169      106.851855   0.000000
  170      108.467255   0.000000
  171      108.559583   0.000000
  172      108.559583   0.000000
  173      109.132157   0.000000
  174      109.132157   0.000000
  175      109.982447   0.000000
  176      110.106353   0.000000
  177      111.190067   0.000000
  178      111.190067   0.000000
  179      112.565393   0.000000
  180      112.565393   0.000000
  181      113.065908   0.000000
  182      113.075197   0.000000
  183      113.075197   0.000000
  184      116.812784   0.000000
  185      117.132661   0.000000
  186      117.132661   0.000000
  187      117.756821   0.000000
  188      117.756821   0.000000
  189      117.821514   0.000000
  190      117.924534   0.000000
  191      118.174774   0.000000
  192      118.654711   0.000000
  193      118.654711   0.000000
  194      120.628630   0.000000
  195      120.628630   0.000000
  196      120.848114   0.000000
 
  0.1925930E-33  0.1428571E+00  0.0000000E+00  0.5830904E-02
    1      -28.337452   1.000000
    2      -28.337452   1.000000
    3      -28.324321   1.000000
    4      -28.323847   1.000000
    5      -28.323846   1.000000
    6      -21.332025   1.000000
    7        0.511381   1.000000
    8        1.410578   1.000000
    9        1.410578   1.000000
   10        4.668628   0.000000
   11        9.714372   0.000000
   12       10.831335   0.000000
   13       10.831335   0.000000
   14       12.124445   0.000000
   15       12.282312   0.000000
   16       12.282312   0.000000
   17       13.128584   0.000000
   18       15.108084   0.000000
   19       15.108084   0.000000
   20       17.522525   0.000000
   21       19.274535   0.000000
   22       19.274535   0.000000
   23       19.591064   0.000000
   24       23.531520   0.000000
   25       24.643936   0.000000
   26       24.643936   0.000000
   27       25.156432   0.000000
   28       26.582814   0.000000
   29       27.721970   0.000000
   30       27.721970   0.000000
   31       29.372311   0.000000
   32       29.372311   0.000000
   33       29.794681   0.000000
   34       31.150266   0.000000
   35       31.150266   0.000000
   36       34.379842   0.000000
   37       34.949465   0.000000
   38       35.775103   0.000000
   39       35.775103   0.000000
   40       36.379284   0.000000
   41       37.998327   0.000000
   42       37.998327   0.000000
   43       38.445289   0.000000
   44       38.445289   0.000000
   45       39.252054   0.000000
   46       39.514134   0.000000
   47       39.514134   0.000000
   48       39.973372   0.000000
   49       40.560109   0.000000
   50       41.794767   0.000000
   51       41.794768   0.000000
   52       42.143054   0.000000
   53       43.550257   0.000000
   54       43.715587   0.000000
   55       43.715587   0.000000
   56       44.146643   0.000000
   57       44.146643   0.000000
   58       45.591781   0.000000
   59       45.591781   0.000000
   60       46.833872   0.000000
   61       47.897763   0.000000
   62       47.897763   0.000000
   63       48.060287   0.000000
   64       49.823079   0.000000
   65       50.694168   0.000000
   66       50.694168   0.000000
   67       50.725631   0.000000
   68       52.102379   0.000000
   69       52.412284   0.000000
   70       52.412284   0.000000
   71       56.242905   0.000000
   72       57.929698   0.000000
   73       57.929698   0.000000
   74       58.674080   0.000000
   75       61.235253   0.000000
   76       61.235253   0.000000
   77       62.814559   0.000000
   78       62.814559   0.000000
   79       63.621524   0.000000
   80       64.506436   0.000000
   81       65.149532   0.000000
   82       65.475596   0.000000
   83       65.475596   0.000000
   84       68.230580   0.000000
   85       68.230580   0.000000
   86       68.460135   0.000000
   87       68.771792   0.000000
   88       68.771792   0.000000
   89       69.996475   0.000000
   90       69.996475   0.000000
   91       70.048805   0.000000
   92       71.033387   0.000000
   93       71.033387   0.000000
   94       71.071483   0.000000
   95       72.526106   0.000000
   96       72.598149   0.000000
   97       73.315362   0.000000
   98       73.315362   0.000000
   99       74.243345   0.000000
  100       74.243345   0.000000
  101       74.590618   0.000000
  102       76.160400   0.000000
  103       76.160400   0.000000
  104       76.303024   0.000000
  105       76.762697   0.000000
  106       76.845841   0.000000
  107       76.845842   0.000000
  108       77.082191   0.000000
  109       77.483908   0.000000