   1   1   0   0
  0.5789729E+02  0.4342346E-09  0.4342346E-09  0.4342346E-09  0.1000000E-15
  1.000000000000000E-004
  CAR 
 Og_FCC                                  
     80.79585607    -35.77577618  301      3.96099061      1.00000000
    -35.776  0.0000E+00  0.0000E+00
    -35.387  0.0000E+00  0.0000E+00
    -34.999  0.0000E+00  0.0000E+00
    -34.610  0.0000E+00  0.0000E+00
    -34.221  0.0000E+00  0.0000E+00
    -33.833  0.0000E+00  0.0000E+00
    -33.444  0.0000E+00  0.0000E+00
    -33.056  0.0000E+00  0.0000E+00
    -32.667  0.0000E+00  0.0000E+00
    -32.279  0.0000E+00  0.0000E+00
    -31.890  0.0000E+00  0.0000E+00
    -31.501  0.0000E+00  0.0000E+00
    -31.113  0.0000E+00  0.0000E+00
    -30.724  0.0000E+00  0.0000E+00
    -30.336  0.0000E+00  0.4000E+01
    -29.947  0.0000E+00  0.4000E+01
    -29.559  0.0000E+00  0.4000E+01
    -29.170  0.0000E+00  0.4000E+01
    -28.781  0.0000E+00  0.4000E+01
    -28.393  0.0000E+00  0.4000E+01
    -28.004  0.0000E+00  0.4000E+01
    -27.616  0.0000E+00  0.4000E+01
    -27.227  0.0000E+00  0.4000E+01
    -26.839  0.0000E+00  0.4000E+01
    -26.450  0.0000E+00  0.4000E+01
    -26.061  0.0000E+00  0.4000E+01
    -25.673  0.0000E+00  0.4000E+01
    -25.284  0.0000E+00  0.4000E+01
    -24.896  0.0000E+00  0.4000E+01
    -24.507  0.0000E+00  0.4000E+01
    -24.119  0.0000E+00  0.4000E+01
    -23.730  0.0000E+00  0.1000E+02
    -23.341  0.0000E+00  0.1000E+02
    -22.953  0.0000E+00  0.1000E+02
    -22.564  0.0000E+00  0.1000E+02
    -22.176  0.0000E+00  0.1000E+02
    -21.787  0.0000E+00  0.1000E+02
    -21.399  0.0000E+00  0.1000E+02
    -21.010  0.0000E+00  0.1000E+02
    -20.621  0.0000E+00  0.1000E+02
    -20.233  0.0000E+00  0.1000E+02
    -19.844  0.0000E+00  0.1200E+02
    -19.456  0.0000E+00  0.1200E+02
    -19.067  0.0000E+00  0.1200E+02
    -18.679  0.0000E+00  0.1200E+02
    -18.290  0.0000E+00  0.1200E+02
    -17.901  0.0000E+00  0.1200E+02
    -17.513  0.0000E+00  0.1200E+02
    -17.124  0.0000E+00  0.1200E+02
    -16.736  0.0000E+00  0.1200E+02
    -16.347  0.0000E+00  0.1200E+02
    -15.959  0.0000E+00  0.1200E+02
    -15.570  0.0000E+00  0.1200E+02
    -15.181  0.0000E+00  0.1200E+02
    -14.793  0.0000E+00  0.1200E+02
    -14.404  0.0000E+00  0.1200E+02
    -14.016  0.0000E+00  0.1200E+02
    -13.627  0.0000E+00  0.1200E+02
    -13.239  0.0000E+00  0.1200E+02
    -12.850  0.0000E+00  0.1200E+02
    -12.461  0.0000E+00  0.1200E+02
    -12.073  0.0000E+00  0.1200E+02
    -11.684  0.0000E+00  0.1200E+02
    -11.296  0.0000E+00  0.1200E+02
    -10.907  0.0000E+00  0.1200E+02
    -10.519  0.0000E+00  0.1200E+02
    -10.130  0.0000E+00  0.1200E+02
     -9.741  0.0000E+00  0.1200E+02
     -9.353  0.0000E+00  0.1200E+02
     -8.964  0.0000E+00  0.1200E+02
     -8.576  0.0000E+00  0.1200E+02
     -8.187  0.0000E+00  0.1200E+02
     -7.799  0.0000E+00  0.1200E+02
     -7.410  0.0000E+00  0.1200E+02
     -7.021  0.0000E+00  0.1392E+02
     -6.633  0.0000E+00  0.1400E+02
     -6.244  0.0000E+00  0.1400E+02
     -5.856  0.0000E+00  0.1400E+02
     -5.467  0.0000E+00  0.1400E+02
     -5.079  0.0000E+00  0.1400E+02
     -4.690  0.0000E+00  0.1400E+02
     -4.301  0.0000E+00  0.1400E+02
     -3.913  0.0000E+00  0.1400E+02
     -3.524  0.0000E+00  0.1400E+02
     -3.136  0.0000E+00  0.1400E+02
     -2.747  0.0000E+00  0.1400E+02
     -2.359  0.0000E+00  0.1400E+02
     -1.970  0.0000E+00  0.1400E+02
     -1.581  0.0000E+00  0.1400E+02
     -1.193  0.0000E+00  0.1400E+02
     -0.804  0.0000E+00  0.1400E+02
     -0.416  0.0000E+00  0.1400E+02
     -0.027  0.0000E+00  0.1400E+02
      0.361  0.0000E+00  0.1400E+02
      0.750  0.3738E-03  0.1404E+02
      1.139  0.0000E+00  0.1553E+02
      1.527  0.0000E+00  0.1586E+02
      1.916  0.0000E+00  0.1597E+02
      2.304  0.3837E-06  0.1666E+02
      2.693  0.0000E+00  0.1696E+02
      3.081  0.0000E+00  0.1763E+02
      3.470  0.0000E+00  0.1783E+02
      3.859  0.0000E+00  0.1799E+02
      4.247  0.0000E+00  0.1801E+02
      4.636  0.0000E+00  0.1801E+02
      5.024  0.0000E+00  0.1801E+02
      5.413  0.0000E+00  0.1801E+02
      5.801  0.0000E+00  0.1808E+02
      6.190  0.0000E+00  0.1814E+02
      6.579  0.0000E+00  0.1828E+02
      6.967  0.0000E+00  0.1889E+02
      7.356  0.0000E+00  0.1944E+02
      7.744  0.7149E-01  0.1981E+02
      8.133  0.0000E+00  0.2008E+02
      8.521  0.0000E+00  0.2031E+02
      8.910  0.0000E+00  0.2097E+02
      9.299  0.0000E+00  0.2169E+02
      9.687  0.0000E+00  0.2225E+02
     10.076  0.0000E+00  0.2238E+02
     10.464  0.0000E+00  0.2294E+02
     10.853  0.0000E+00  0.2381E+02
     11.241  0.2565E-04  0.2401E+02
     11.630  0.0000E+00  0.2500E+02
     12.019  0.0000E+00  0.2567E+02
     12.407  0.0000E+00  0.2606E+02
     12.796  0.0000E+00  0.2659E+02
     13.184  0.0000E+00  0.2748E+02
     13.573  0.4066E+00  0.2841E+02
     13.961  0.1025E-02  0.2895E+02
     14.350  0.5923E-09  0.2995E+02
     14.739  0.0000E+00  0.3051E+02
     15.127  0.0000E+00  0.3088E+02
     15.516  0.5665E+00  0.3182E+02
     15.904  0.0000E+00  0.3229E+02
     16.293  0.0000E+00  0.3307E+02
     16.681  0.0000E+00  0.3365E+02
     17.070  0.0000E+00  0.3431E+02
     17.459  0.1598E-01  0.3490E+02
     17.847  0.7105E-01  0.3624E+02
     18.236  0.0000E+00  0.3761E+02
     18.624  0.4628E-01  0.3949E+02
     19.013  0.0000E+00  0.4144E+02
     19.401  0.0000E+00  0.4208E+02
     19.790  0.0000E+00  0.4342E+02
     20.179  0.0000E+00  0.4412E+02
     20.567  0.0000E+00  0.4544E+02
     20.956  0.0000E+00  0.4600E+02
     21.344  0.0000E+00  0.4641E+02
     21.733  0.0000E+00  0.4657E+02
     22.121  0.0000E+00  0.4718E+02
     22.510  0.3249E+00  0.4786E+02
     22.899  0.0000E+00  0.4809E+02
     23.287  0.0000E+00  0.4908E+02
     23.676  0.0000E+00  0.4956E+02
     24.064  0.5719E+00  0.5072E+02
     24.453  0.1430E+00  0.5147E+02
     24.841  0.2859E+00  0.5308E+02
     25.230  0.2967E+00  0.5433E+02
     25.619  0.0000E+00  0.5569E+02
     26.007  0.0000E+00  0.5651E+02
     26.396  0.5752E-05  0.5742E+02
     26.784  0.0000E+00  0.5767E+02
     27.173  0.1397E+00  0.5847E+02
     27.561  0.0000E+00  0.5942E+02
     27.950  0.0000E+00  0.6030E+02
     28.339  0.0000E+00  0.6080E+02
     28.727  0.0000E+00  0.6191E+02
     29.116  0.0000E+00  0.6224E+02
     29.504  0.0000E+00  0.6266E+02
     29.893  0.1430E+00  0.6426E+02
     30.281  0.1157E-01  0.6474E+02
     30.670  0.0000E+00  0.6510E+02
     31.059  0.0000E+00  0.6638E+02
     31.447  0.0000E+00  0.6699E+02
     31.836  0.2076E+00  0.6840E+02
     32.224  0.0000E+00  0.6981E+02
     32.613  0.0000E+00  0.7052E+02
     33.001  0.7379E-02  0.7183E+02
     33.390  0.0000E+00  0.7286E+02
     33.779  0.0000E+00  0.7377E+02
     34.167  0.0000E+00  0.7444E+02
     34.556  0.0000E+00  0.7511E+02
     34.944  0.0000E+00  0.7602E+02
     35.333  0.1906E+00  0.7787E+02
     35.721  0.0000E+00  0.7869E+02
     36.110  0.0000E+00  0.7996E+02
     36.499  0.0000E+00  0.8079E+02
     36.887  0.6376E-15  0.8169E+02
     37.276  0.0000E+00  0.8330E+02
     37.664  0.4249E-12  0.8377E+02
     38.053  0.0000E+00  0.8482E+02
     38.441  0.0000E+00  0.8573E+02
     38.830  0.1153E-14  0.8607E+02
     39.219  0.6585E-05  0.8693E+02
     39.607  0.0000E+00  0.8872E+02
     39.996  0.1430E+00  0.8955E+02
     40.384  0.0000E+00  0.8969E+02
     40.773  0.0000E+00  0.9111E+02
     41.162  0.0000E+00  0.9204E+02
     41.550  0.0000E+00  0.9334E+02
     41.939  0.1952E+00  0.9477E+02
     42.327  0.0000E+00  0.9573E+02
     42.716  0.6202E-01  0.9651E+02
     43.104  0.0000E+00  0.9781E+02
     43.493  0.0000E+00  0.9856E+02
     43.882  0.6769E-11  0.9962E+02
     44.270  0.0000E+00  0.1006E+03
     44.659  0.0000E+00  0.1013E+03
     45.047  0.0000E+00  0.1026E+03
     45.436  0.0000E+00  0.1037E+03
     45.824  0.0000E+00  0.1054E+03
     46.213  0.2859E+00  0.1060E+03
     46.602  0.5804E-06  0.1074E+03
     46.990  0.5719E+00  0.1086E+03
     47.379  0.0000E+00  0.1098E+03
     47.767  0.2859E+00  0.1109E+03
     48.156  0.0000E+00  0.1116E+03
     48.544  0.7640E-01  0.1128E+03
     48.933  0.0000E+00  0.1138E+03
     49.322  0.0000E+00  0.1148E+03
     49.710  0.1906E+00  0.1161E+03
     50.099  0.0000E+00  0.1174E+03
     50.487  0.0000E+00  0.1186E+03
     50.876  0.0000E+00  0.1193E+03
     51.264  0.0000E+00  0.1206E+03
     51.653  0.0000E+00  0.1222E+03
     52.042  0.1899E-07  0.1235E+03
     52.430  0.0000E+00  0.1252E+03
     52.819  0.0000E+00  0.1264E+03
     53.207  0.2859E+00  0.1271E+03
     53.596  0.0000E+00  0.1277E+03
     53.984  0.0000E+00  0.1291E+03
     54.373  0.5723E+00  0.1309E+03
     54.762  0.0000E+00  0.1318E+03
     55.150  0.1134E-04  0.1327E+03
     55.539  0.0000E+00  0.1340E+03
     55.927  0.0000E+00  0.1353E+03
     56.316  0.6404E+00  0.1369E+03
     56.704  0.0000E+00  0.1377E+03
     57.093  0.0000E+00  0.1385E+03
     57.482  0.4496E-01  0.1396E+03
     57.870  0.0000E+00  0.1413E+03
     58.259  0.1228E-05  0.1425E+03
     58.647  0.0000E+00  0.1432E+03
     59.036  0.9592E-03  0.1448E+03
     59.424  0.5674E-06  0.1457E+03
     59.813  0.0000E+00  0.1470E+03
     60.202  0.9656E-16  0.1490E+03
     60.590  0.0000E+00  0.1499E+03
     60.979  0.0000E+00  0.1512E+03
     61.367  0.0000E+00  0.1523E+03
     61.756  0.0000E+00  0.1532E+03
     62.144  0.1430E+00  0.1547E+03
     62.533  0.0000E+00  0.1555E+03
     62.922  0.0000E+00  0.1568E+03
     63.310  0.2859E+00  0.1580E+03
     63.699  0.1214E+00  0.1594E+03
     64.087  0.0000E+00  0.1607E+03
     64.476  0.0000E+00  0.1628E+03
     64.864  0.0000E+00  0.1637E+03
     65.253  0.0000E+00  0.1649E+03
     65.642  0.5525E-14  0.1659E+03
     66.030  0.2120E-04  0.1684E+03
     66.419  0.0000E+00  0.1696E+03
     66.807  0.0000E+00  0.1703E+03
     67.196  0.0000E+00  0.1717E+03
     67.584  0.0000E+00  0.1727E+03
     67.973  0.0000E+00  0.1740E+03
     68.362  0.5091E-07  0.1752E+03
     68.750  0.0000E+00  0.1770E+03
     69.139  0.0000E+00  0.1779E+03
     69.527  0.0000E+00  0.1791E+03
     69.916  0.1906E+00  0.1806E+03
     70.304  0.0000E+00  0.1817E+03
     70.693  0.0000E+00  0.1829E+03
     71.082  0.0000E+00  0.1846E+03
     71.470  0.5719E+00  0.1860E+03
     71.859  0.0000E+00  0.1872E+03
     72.247  0.0000E+00  0.1887E+03
     72.636  0.2859E+00  0.1899E+03
     73.024  0.0000E+00  0.1915E+03
     73.413  0.0000E+00  0.1930E+03
     73.802  0.0000E+00  0.1937E+03
     74.190  0.0000E+00  0.1949E+03
     74.579  0.0000E+00  0.1954E+03
     74.967  0.0000E+00  0.1958E+03
     75.356  0.1883E+00  0.1959E+03
     75.744  0.0000E+00  0.1960E+03
     76.133  0.0000E+00  0.1960E+03
     76.522  0.0000E+00  0.1960E+03
     76.910  0.0000E+00  0.1960E+03
     77.299  0.0000E+00  0.1960E+03
     77.687  0.0000E+00  0.1960E+03
     78.076  0.0000E+00  0.1960E+03
     78.464  0.0000E+00  0.1960E+03
     78.853  0.0000E+00  0.1960E+03
     79.242  0.0000E+00  0.1960E+03
     79.630  0.0000E+00  0.1960E+03
     80.019  0.0000E+00  0.1960E+03
     80.407  0.0000E+00  0.1960E+03
     80.796  0.0000E+00  0.1960E+03
